LAMMPS (23 Jun 2022 - Update 3)
OMP_NUM_THREADS environment is not set. Defaulting to 1 thread. (src/comm.cpp:98)
  using 1 OpenMP thread(s) per MPI task
# Compute elastic constant tensor for a crystal
#
# Written by Aidan Thompson (Sandia, athomps@sandia.gov)
#
#  This script uses the following three include files.
#
#   init.mod      (must be modified for different crystal structures)
# 	       	  Define units, deformation parameters and initial
#		  configuration of the atoms and simulation cell.
#
#
#   potential.mod    (must be modified for different pair styles)
# 		     Define pair style and other attributes
#		     not stored in restart file
#
#
#   displace.mod    (displace.mod should not need to be modified)
# 		    Perform positive and negative box displacements
# 		    in direction ${dir} and size ${up}.
# 		    It uses the resultant changes
#		    in stress to compute one
# 		    row of the elastic stiffness tensor
#
#		    Inputs variables:
#		    	   dir = the Voigt deformation component
#		    		    (1,2,3,4,5,6)
#		    Global constants:
#       	    	   up = the deformation magnitude (strain units)
#       		   cfac = conversion from LAMMPS pressure units to
#               	   output units for elastic constants
#
#
#  To run this on a different system, it should only be necessary to
#  modify the files init.mod and potential.mod. In order to calculate
#  the elastic constants correctly, care must be taken to specify
#  the correct units in init.mod (units, cfac and cunits). It is also
#  important to verify that the minimization of energy w.r.t atom
#  positions in the deformed cell is fully converged.
#  One indication of this is that the elastic constants are insensitive
#  to the choice of the variable ${up} in init.mod. Another is to check
#  the final max and two-norm forces reported in the log file. If you know
#  that minimization is not required, you can set maxiter = 0.0 in
#  init.mod.
#



variable dt equal 0.01
variable strain equal 0.02
variable srate equal 1e-5
variable M equal 1000 # averaging time for properties
variable strainsteps equal ${strain}/${dt}/${srate}
variable strainsteps equal 0.02/${dt}/${srate}
variable strainsteps equal 0.02/0.01/${srate}
variable strainsteps equal 0.02/0.01/1e-05


dimension 2
include init.mod
# NOTE: This script can be modified for different atomic structures,
# units, etc. See in.elastic for more info.
#

# Define the finite deformation size. Try several values of this
# variable to verify that results do not depend on it.
variable up equal 1.0e-1

# Define the amount of random jiggle for atoms
# This prevents atoms from staying on saddle points
variable atomjiggle equal 1.0e-6

# Uncomment one of these blocks, depending on what units
# you are using in LAMMPS and for output

# metal units, elastic constants in eV/A^3
#units		metal
#variable cfac equal 6.2414e-7
#variable cunits string eV/A^3

# Choose potential
# metal units, elastic constants in GPa
units		metal
atom_style	full
#pair_style      lj/cut 1.0
#pair_style      yukawa 1.0 2.0
#pair_modify     mix arithmetic
bond_style      harmonic
angle_style     harmonic
dihedral_style  zero
special_bonds   amber
variable cfac equal 1.0e-4
variable cunits string GPa
boundary	p p p

# Need to set mass to something, just to satisfy LAMMPS
#mass 1 1.0e-20
read_data original_network.lmp
Reading data file ...
  triclinic box = (0 0 0) to (21.972449 21.972449 1) with tilt (0 0 0)
  2 by 2 by 1 MPI processor grid
WARNING: Atom style in data file differs from currently defined atom style (src/read_data.cpp:538)
  reading atoms ...
  499 atoms
WARNING: Bond style in data file differs from currently defined bond style (src/read_data.cpp:630)
  scanning bonds ...
  5 = max bonds/atom
WARNING: Angle style in data file differs from currently defined angle style (src/read_data.cpp:641)
  scanning angles ...
  15 = max angles/atom
  reading bonds ...
  979 bonds
  reading angles ...
  3221 angles
Finding 1-2 1-3 1-4 neighbors ...
  special bond factors lj:    0        0        0.5     
  special bond factors coul:  0        0        0.8333333333333334
     6 = max # of 1-2 neighbors
    21 = max # of 1-3 neighbors
    85 = max # of 1-4 neighbors
    33 = max # of special neighbors
  special bonds CPU = 0.001 seconds
  read_data CPU = 0.030 seconds

# real units, elastic constants in GPa
#units		real
#variable cfac equal 1.01325e-4
#variable cunits string GPa

# Define minimization parameters
variable etol equal 0.0
variable ftol equal 5.0e-10
variable maxiter equal 100000
variable maxeval equal 20000
variable dmax equal 1.0e-2


include potential.mod
# NOTE: This script can be modified for different pair styles
# See in.elastic for more info.

# Setup neighbor style
neighbor 3.0 nsq
neigh_modify once no every 1 delay 0 check yes
comm_modify cutoff 2.0

# Setup minimization style
min_style	     cg
min_modify	     dmax ${dmax} line quadratic
min_modify	     dmax 0.01 line quadratic

timestep	0.001


# Setup output
thermo		500
thermo_style custom step temp pe ebond eangle edihed press pxx pyy pzz pxy pxz pyz lx ly lz vol
thermo_modify norm no


change_box all triclinic
Changing box ...
  triclinic box = (0 0 0) to (21.972449 21.972449 1) with tilt (0 0 0)
comm_modify mode single cutoff 10.0 vel yes
atom_modify sort 0 0



# Compute initial state

#dump rela all atom 1 traj_relax.lmpstrj
fix 3 all box/relax x 0 y 0 xy 0  #MS comment: relax if the network is periodic
minimize ${etol} ${ftol} ${maxiter} ${maxeval}
minimize 0 ${ftol} ${maxiter} ${maxeval}
minimize 0 5e-10 ${maxiter} ${maxeval}
minimize 0 5e-10 100000 ${maxeval}
minimize 0 5e-10 100000 20000
Neighbor list info ...
  update every 1 steps, delay 0 steps, check yes
  max neighbors/atom: 2000, page size: 100000
  master list distance cutoff = 0
  ghost atom cutoff = 10
  0 neighbor lists, perpetual/occasional/extra = 0 0 0
WARNING: Inconsistent image flags (src/domain.cpp:819)
Per MPI rank memory allocation (min/avg/max) = 12.82 | 12.82 | 12.82 Mbytes
   Step          Temp          PotEng         E_bond        E_angle        E_dihed         Press           Pxx            Pyy            Pzz            Pxy            Pxz            Pyz             Lx             Ly             Lz           Volume    
         0   0              2.5226886e-10  2.5226886e-10  0              0             -0.030247555   -0.056106221   -0.0043888882   0             -0.011613376    0              0              21.972449      21.972449      1              482.78852    
         6   0              3.5324213e-11  3.5324213e-11  0              0             -0.22031856    -0.26627392    -0.17436319     0             -0.023339483    0              0              21.972451      21.97245       1              482.78857    
Loop time of 0.00283287 on 4 procs for 6 steps with 499 atoms

100.0% CPU use with 4 MPI tasks x 1 OpenMP threads

Minimization stats:
  Stopping criterion = linesearch alpha is zero
  Energy initial, next-to-last, final = 
    2.52268855019718e-10 3.53242127832267e-11 3.53242127832267e-11
  Force two-norm initial, final = 5.7003804e-05 9.6528753e-05
  Force max component initial, final = 1.6906651e-05 8.0237101e-05
  Final line search alpha, max atom move = 0.5 4.011855e-05
  Iterations, force evaluations = 6 14

MPI task timing breakdown:
Section |  min time  |  avg time  |  max time  |%varavg| %total
---------------------------------------------------------------
Pair    | 0          | 0          | 0          |   0.0 |  0.00
Bond    | 0.0014983  | 0.0015258  | 0.001558   |   0.1 | 53.86
Neigh   | 0          | 0          | 0          |   0.0 |  0.00
Comm    | 0.00063493 | 0.00066441 | 0.00069319 |   0.0 | 23.45
Output  | 0          | 0          | 0          |   0.0 |  0.00
Modify  | 0          | 0          | 0          |   0.0 |  0.00
Other   |            | 0.0006426  |            |       | 22.69

Nlocal:         124.75 ave         127 max         121 min
Histogram: 1 0 0 0 0 0 1 0 1 1
Nghost:          867.5 ave         876 max         856 min
Histogram: 1 0 0 1 0 0 0 0 0 2
Neighs:              0 ave           0 max           0 min
Histogram: 4 0 0 0 0 0 0 0 0 0

Total # of neighbors = 0
Ave neighs/atom = 0
Ave special neighs/atom = 25.963928
Neighbor list builds = 0
Dangerous builds = 0
thermo 100
unfix 3

fix 2d all enforce2d



#dump dump0 all xyz 1000000 cfg0.xyz
#dump_modify dump0 format line "%d %20.10g %20.10g %20.10g"
#minimize ${etol} ${ftol} ${maxiter} ${maxeval}

#undump rela

#write_restart restart.equil

# These formulas define the derivatives w.r.t. strain components
# Constants uses $, variables use v_


timestep        ${dt}
timestep        0.01
variable nsteps equal round(${strainsteps})
variable nsteps equal round(200000)

fix             4 all nve
fix             5 all langevin 0.1 0.1 1 904297
#fix		6 all press/berendsen y  0.0 0.0 1 x 0.0 0.0 10
fix             6 all nph y 0.0 0.0 10 ptemp 0.1 # x 0.0 0.0 10

# For PLUMED2
# fix 22 all plumed plumedfile plumed.dat outfile plumed.out

#fix             6 all nph x 0.0 0.0 10
fix     	9 all deform 1 x erate -${srate} units box remap x
fix     	9 all deform 1 x erate -1e-05 units box remap x

#fix     8 all deform 1 xy erate ${srate} units box remap x



#fix    10 all ave/time

dump 1 all atom 1000 deform_dump.lammpstrj


#To avoid flying ice cube phenomenon:
#fix 21 all momentum 100 linear 1 1 1 angular


run  ${nsteps}
run  200000
WARNING: One or more atoms are time integrated more than once (src/modify.cpp:292)
WARNING: Inconsistent image flags (src/domain.cpp:819)
Per MPI rank memory allocation (min/avg/max) = 11.71 | 11.71 | 11.71 Mbytes
   Step          Temp          PotEng         E_bond        E_angle        E_dihed         Press           Pxx            Pyy            Pzz            Pxy            Pxz            Pyz             Lx             Ly             Lz           Volume    
         6   0              3.5324213e-11  3.5324213e-11  0              0             -0.22031856    -0.26627392    -0.17436319     0             -0.023339483    0              0              21.972451      21.97245       1              482.78857    
       100   0.19244622     0.00039613374  0.00039613374  0              0             -15.297112     -40.697628      9.8181865      0             -18.021559      0              0              21.972244      21.972727      1              482.79013    
       200   0.20781924     0.0014352585   0.0014352585   0              0             -26.77538      -51.222207     -2.6314502      0             -40.900503      0              0              21.972024      21.97311       1              482.7937     
       300   0.19003237     0.0023675686   0.0023675686   0              0             -5.0466514     -7.0856917     -3.279118       0              19.004784      0              0              21.971805      21.9735        1              482.79744    
       400   0.20061905     0.0031392639   0.0031392639   0              0              13.068136      11.02169       14.820766      0              105.26232      0              0              21.971585      21.972877      1              482.77893    
       500   0.19791612     0.0038262308   0.0038262308   0              0              15.697441      28.531065      2.5861718      0              157.5274       0              0              21.971365      21.972763      1              482.77161    
       600   0.20503186     0.0043472074   0.0043472074   0              0              55.342668      124.77768     -14.392414      0              150.04482      0              0              21.971145      21.97245       1              482.75989    
       700   0.19433819     0.0048465978   0.0048465978   0              0              87.197854      164.34502      9.7574285      0              84.007283      0              0              21.970926      21.972121      1              482.74784    
       800   0.19619671     0.0051747589   0.0051747589   0              0              95.846095      186.66606      4.7352795      0              113.23183      0              0              21.970706      21.971733      1              482.7345     
       900   0.20744842     0.0054113785   0.0054113785   0              0              49.297461      115.62294     -17.298011      0              175.0337       0              0              21.970486      21.97238       1              482.74387    
      1000   0.18695733     0.005353373    0.005353373    0              0              117.99848      228.99761      6.7274374      0              174.87381      0              0              21.970267      21.971854      1              482.72749    
      1100   0.19881068     0.0055578987   0.0055578987   0              0              138.22896      272.55345      3.6171775      0              125.86168      0              0              21.970047      21.971479      1              482.71442    
      1200   0.21351709     0.0055589295   0.0055589295   0              0              193.83201      406.55809     -19.163383      0              158.90455      0              0              21.969827      21.971421      1              482.70833    
      1300   0.20385679     0.0056650466   0.0056650466   0              0              226.27167      425.77676      26.46668       0              210.71987      0              0              21.969607      21.971016      1              482.6946     
      1400   0.2082903      0.0057137003   0.0057137003   0              0              181.60081      375.71956     -12.814222      0              186.14218      0              0              21.969388      21.971998      1              482.71134    
      1500   0.19730614     0.0056847493   0.0056847493   0              0              188.73858      375.71204      1.4821035      0              168.52026      0              0              21.969168      21.97184       1              482.70304    
      1600   0.21232683     0.005826015    0.005826015    0              0              163.70708      301.92637      25.196981      0              117.89584      0              0              21.968948      21.97192       1              482.69996    
      1700   0.19511693     0.0059484858   0.0059484858   0              0              75.374785      183.03113     -32.580329      0              123.37868      0              0              21.968729      21.972309      1              482.7037     
      1800   0.19889407     0.0059212672   0.0059212672   0              0              101.47063      183.49843      19.166606      0              95.425977      0              0              21.968509      21.971599      1              482.68327    
      1900   0.18643034     0.0059872806   0.0059872806   0              0              100.87389      189.14639      12.325971      0              54.426624      0              0              21.968289      21.972031      1              482.68792    
      2000   0.21055764     0.0062049981   0.0062049981   0              0              41.284609      122.5579      -40.282031      0              23.762341      0              0              21.968069      21.972393      1              482.69105    
      2100   0.19378777     0.0062727085   0.0062727085   0              0              73.748566      113.60832      33.603105      0              22.055002      0              0              21.96785       21.97205       1              482.6787     
      2200   0.19930632     0.0061796738   0.0061796738   0              0              19.908312      47.982967     -8.4523529      0              45.739886      0              0              21.96763       21.972998      1              482.69468    
      2300   0.1900452      0.0060959326   0.0060959326   0              0              48.459849      126.89759     -30.234938      0              75.954834      0              0              21.96741       21.973913      1              482.70997    
      2400   0.20551716     0.0062083661   0.0062083661   0              0              168.80285      293.27013      44.034094      0              61.976191      0              0              21.96719       21.97326       1              482.69079    
      2500   0.19210221     0.0062769395   0.0062769395   0              0              140.79985      303.25234     -21.943222      0              97.438804      0              0              21.966971      21.974154      1              482.7056     
      2600   0.19017027     0.0061667254   0.0061667254   0              0              189.11413      396.82086     -18.893389      0              146.66485      0              0              21.966751      21.973911      1              482.69543    
      2700   0.18172558     0.0059761893   0.0059761893   0              0              266.52752      485.9882       46.788299      0              174.17294      0              0              21.966531      21.974093      1              482.69461    
      2800   0.19776856     0.0060650051   0.0060650051   0              0              235.74343      519.57078     -48.355103      0              79.429649      0              0              21.966312      21.975216      1              482.71443    
      2900   0.19155742     0.0062084453   0.0062084453   0              0              279.46744      539.94021      18.711786      0              34.259414      0              0              21.966092      21.975206      1              482.7094     
      3000   0.19896843     0.0062462316   0.0062462316   0              0              284.749        534.51372      34.696789      0             -9.8837101      0              0              21.965872      21.975631      1              482.7139     
      3100   0.19389832     0.0063222469   0.0063222469   0              0              227.82546      527.5112      -72.161004      0             -52.834439      0              0              21.965652      21.97645       1              482.72707    
      3200   0.19452811     0.0065449319   0.0065449319   0              0              296.92823      535.7674       57.801783      0             -110.42383      0              0              21.965433      21.97491       1              482.6884     
      3300   0.19605896     0.0064449366   0.0064449366   0              0              235.29798      466.82291      3.4752781      0             -77.090515      0              0              21.965213      21.975173      1              482.68936    
      3400   0.21681452     0.0064333724   0.0064333724   0              0              127.86366      323.40792     -67.974895      0             -57.055798      0              0              21.964993      21.976051      1              482.70382    
      3500   0.20855841     0.0066404833   0.0066404833   0              0              158.42811      218.87451      97.700252      0             -101.19397      0              0              21.964773      21.974746      1              482.67031    
      3600   0.19138253     0.0066678557   0.0066678557   0              0              21.886203      95.671356     -52.206627      0             -151.28555      0              0              21.964554      21.976357      1              482.70087    
      3700   0.21458611     0.0064986728   0.0064986728   0              0              55.773416      152.57606     -41.313833      0             -74.836786      0              0              21.964334      21.977163      1              482.71374    
      3800   0.20139058     0.0062251097   0.0062251097   0              0              197.22736      269.59266      124.58456      0             -14.546581      0              0              21.964114      21.975621      1              482.67505    
      3900   0.1961096      0.0063947259   0.0063947259   0              0              7.0707656      142.98138     -129.13855      0              32.458568      0              0              21.963895      21.97768       1              482.71545    
      4000   0.19172951     0.0064668558   0.0064668558   0              0              132.09573      235.56634      28.33486       0              5.9644918      0              0              21.963675      21.97606       1              482.67504    
      4100   0.22215485     0.0064439443   0.0064439443   0              0              200.25349      293.91028      106.33836      0              24.532525      0              0              21.963455      21.975417      1              482.65608    
      4200   0.1882123      0.0065935688   0.0065935688   0              0              13.903242      196.89666     -169.37016      0              32.139055      0              0              21.963235      21.977981      1              482.70758    
      4300   0.20669479     0.0067457686   0.0067457686   0              0              205.043        292.60712      117.18077      0              67.434922      0              0              21.963016      21.975375      1              482.64551    
      4400   0.19773648     0.0068819656   0.0068819656   0              0              160.83635      295.48742      25.911229      0              94.008884      0              0              21.962796      21.976742      1              482.67069    
      4500   0.20670746     0.0072027085   0.0072027085   0              0              31.418237      235.81174     -173.28494      0              112.34313      0              0              21.962576      21.97852       1              482.70492    
      4600   0.21721767     0.0072015745   0.0072015745   0              0              300.30973      390.65435      209.68261      0              130.24867      0              0              21.962356      21.975678      1              482.63768    
      4700   0.18671582     0.0070953715   0.0070953715   0              0              123.46423      332.26327     -85.609448      0              100.86295      0              0              21.962137      21.978558      1              482.6961     
      4800   0.19906374     0.007141079    0.007141079    0              0              123.53328      375.67523     -128.88217      0              66.151547      0              0              21.961917      21.978461      1              482.68913    
      4900   0.19571875     0.0070708194   0.0070708194   0              0              401.30114      538.98597      263.32168      0              49.981682      0              0              21.961697      21.975091      1              482.61029    
      5000   0.2104203      0.0073026337   0.0073026337   0              0              95.728191      408.62771     -217.4614       0              129.77953      0              0              21.961478      21.979484      1              482.70194    
      5100   0.19576851     0.0073179808   0.0073179808   0              0              232.17302      463.02414      1.0349266      0              132.41103      0              0              21.961258      21.978253      1              482.67007    
      5200   0.20007949     0.0072621531   0.0072621531   0              0              420.47871      595.32698      245.3396       0              106.16864      0              0              21.961038      21.97628       1              482.62193    
      5300   0.20528307     0.0073459658   0.0073459658   0              0              25.377535      392.22275     -341.76703      0              105.08999      0              0              21.960818      21.982011      1              482.74295    
      5400   0.20040107     0.0074310082   0.0074310082   0              0              400.51634      607.09694      193.66958      0              70.280654      0              0              21.960599      21.977556      1              482.64028    
      5500   0.20894908     0.0071240215   0.0071240215   0              0              379.86626      636.96056      122.47967      0              12.735065      0              0              21.960379      21.977971      1              482.64457    
      5600   0.20151825     0.0070078407   0.0070078407   0              0              38.559882      455.89728     -379.06847      0             -31.1553        0              0              21.960159      21.981762      1              482.72298    
      5700   0.20478833     0.0070343306   0.0070343306   0              0              481.34384      610.69175      351.69363      0              22.592705      0              0              21.95994       21.974717      1              482.56346    
      5800   0.19810004     0.0074171078   0.0074171078   0              0              266.67594      598.36793     -65.29154       0              134.22359      0              0              21.95972       21.978101      1              482.63294    
      5900   0.19539472     0.0074355878   0.0074355878   0              0              161.06101      601.71958     -279.89016      0              122.43302      0              0              21.9595        21.980296      1              482.67631    
      6000   0.22154615     0.0071602041   0.0071602041   0              0              617.5914       796.0121       438.85308      0              96.170633      0              0              21.95928       21.974355      1              482.54102    
      6100   0.19955047     0.0072876243   0.0072876243   0              0              131.6054       544.3529      -281.42157      0              101.79318      0              0              21.959061      21.980878      1              482.67942    
      6200   0.18413462     0.0072655459   0.0072655459   0              0              238.63009      577.13089     -100.1624       0              72.198878      0              0              21.958841      21.980071      1              482.65687    
      6300   0.21654004     0.0070182136   0.0070182136   0              0              565.54981      707.37304      423.4511       0              72.705736      0              0              21.958621      21.975052      1              482.54185    
      6400   0.18679278     0.0072829858   0.0072829858   0              0             -29.369663      389.79342     -448.83762      0              20.578504      0              0              21.958401      21.982335      1              482.69693    
      6500   0.20416272     0.0074490616   0.0074490616   0              0              364.75599      585.98613      143.24676      0              44.240452      0              0              21.958182      21.977129      1              482.57779    
      6600   0.2082973      0.0072802124   0.0072802124   0              0              460.06528      654.21775      265.6349       0              80.192818      0              0              21.957962      21.976833      1              482.56646    
      6700   0.20400449     0.0074826176   0.0074826176   0              0             -24.556998      447.24082     -496.6268       0              75.76055       0              0              21.957742      21.985095      1              482.74304    
      6800   0.20518096     0.0074206389   0.0074206389   0              0              559.17601      765.53468      352.53638      0              146.93919      0              0              21.957523      21.978049      1              482.58351    
      6900   0.19982648     0.0072904328   0.0072904328   0              0              354.38389      661.0621       47.426467      0              198.49052      0              0              21.957303      21.980817      1              482.63945    
      7000   0.20675087     0.0071202127   0.0071202127   0              0              45.634964      495.33977     -404.33764      0              221.37952      0              0              21.957083      21.985238      1              482.73171    
      7100   0.18668798     0.0070059758   0.0070059758   0              0              636.3538       804.86543      467.53257      0              199.98547      0              0              21.956863      21.977473      1              482.55636    
      7200   0.20048652     0.0069077409   0.0069077409   0              0              209.9692       609.47527     -189.82392      0              171.60088      0              0              21.956644      21.982946      1              482.67171    
      7300   0.20091443     0.0069383423   0.0069383423   0              0              201.91343      620.0353      -216.4788       0              124.04592      0              0              21.956424      21.983671      1              482.6828     
      7400   0.18437731     0.0069610045   0.0069610045   0              0              680.14933      896.53505      463.48841      0              99.770246      0              0              21.956204      21.97891       1              482.57344    
      7500   0.20815241     0.0071588132   0.0071588132   0              0              150.24979      665.71536     -365.50525      0              63.825659      0              0              21.955984      21.986611      1              482.73769    
      7600   0.20108965     0.0073146238   0.0073146238   0              0              444.08752      891.31173     -3.4139736      0              58.678228      0              0              21.955765      21.98359       1              482.66653    
      7700   0.20527877     0.007697514    0.007697514    0              0              656.40725      967.90153      344.63875      0              100.34053      0              0              21.955545      21.980892      1              482.60247    
      7800   0.20347581     0.0077411131   0.0077411131   0              0              157.81025      716.4259      -401.10419      0              98.627501      0              0              21.955325      21.98758       1              482.74447    
      7900   0.19982206     0.0080709287   0.0080709287   0              0              548.30094      934.8393       161.48199      0              87.801398      0              0              21.955106      21.982807      1              482.63485    
      8000   0.19246089     0.0079926657   0.0079926657   0              0              553.6497       954.44237      152.57277      0              85.020507      0              0              21.954886      21.982311      1              482.61913    
      8100   0.20916606     0.0077401289   0.0077401289   0              0              203.04451      717.53511     -311.73632      0              93.261574      0              0              21.954666      21.98671       1              482.71089    
      8200   0.19663113     0.0075330033   0.0075330033   0              0              560.15827      893.32159      226.7194       0              144.21367      0              0              21.954446      21.981474      1              482.59109    
      8300   0.19631443     0.0072046459   0.0072046459   0              0              447.89524      900.99962     -5.4924638      0              175.55712      0              0              21.954227      21.983377      1              482.62804    
      8400   0.19240573     0.0069848139   0.0069848139   0              0              383.31161      949.59919     -183.26831      0              158.23259      0              0              21.954007      21.985078      1              482.66056    
      8500   0.20796049     0.0070779287   0.0070779287   0              0              640.05899      1069.8711      209.96588      0              168.76654      0              0              21.953787      21.981144      1              482.56935    
      8600   0.18580983     0.0072704418   0.0072704418   0              0              486.57359      1068.5368     -95.669685      0              224.22643      0              0              21.953568      21.983212      1              482.60993    
      8700   0.20294108     0.0074984889   0.0074984889   0              0              530.44533      1126.9661     -66.343186      0              249.77169      0              0              21.953348      21.983249      1              482.60592    
      8800   0.22151737     0.0073796917   0.0073796917   0              0              658.80938      1150.5253      166.80627      0              231.06798      0              0              21.953128      21.981764      1              482.56848    
      8900   0.19803247     0.0072139405   0.0072139405   0              0              435.7234       1001.7815     -130.61814      0              247.14093      0              0              21.952908      21.984796      1              482.63021    
      9000   0.20216        0.0072847844   0.0072847844   0              0              501.20299      988.84722      13.269028      0              254.53699      0              0              21.952689      21.983908      1              482.6059     
      9100   0.20782379     0.0072933738   0.0072933738   0              0              546.0218       991.98668      99.783597      0              247.40969      0              0              21.952469      21.983166      1              482.58477    
      9200   0.20510147     0.0073720666   0.0073720666   0              0              388.37594      917.40303     -140.91145      0              278.63605      0              0              21.952249      21.985414      1              482.6293     
      9300   0.2073772      0.0073525338   0.0073525338   0              0              550.41419      1016.2829      84.259254      0              297.35438      0              0              21.952029      21.983433      1              482.58096    
      9400   0.21718259     0.0074175211   0.0074175211   0              0              477.10214      921.71272      32.207254      0              272.90626      0              0              21.95181       21.984092      1              482.59061    
      9500   0.19215996     0.0074028948   0.0074028948   0              0              396.02535      918.28536     -126.52354      0              265.48475      0              0              21.95159       21.985844      1              482.62423    
      9600   0.19713112     0.0075647732   0.0075647732   0              0              569.22225      1020.5303      117.6383       0              251.24819      0              0              21.95137       21.984442      1              482.58862    
      9700   0.20199809     0.0077042961   0.0077042961   0              0              471.98422      968.19198     -24.501605      0              234.86559      0              0              21.951151      21.98558       1              482.60878    
      9800   0.20423804     0.0075024577   0.0075024577   0              0              452.40234      999.93191     -95.407581      0              231.8509       0              0              21.950931      21.986119      1              482.61578    
      9900   0.20220103     0.0074995467   0.0074995467   0              0              603.89204      1064.2718      143.21947      0              145.24399      0              0              21.950711      21.984041      1              482.56532    
     10000   0.19586814     0.0073413748   0.0073413748   0              0              405.68042      892.97857     -81.900105      0              110.75308      0              0              21.950491      21.986405      1              482.61238    
     10100   0.2102275      0.0073515677   0.0073515677   0              0              382.59948      813.03178     -48.133562      0              99.276628      0              0              21.950272      21.986094      1              482.60074    
     10200   0.18523709     0.007493585    0.007493585    0              0              510.43377      869.7107       150.87041      0              34.184715      0              0              21.950052      21.984467      1              482.56018    
     10300   0.20855911     0.0075168988   0.0075168988   0              0              295.04226      726.16484     -136.36731      0              37.709001      0              0              21.949832      21.987856      1              482.62975    
     10400   0.18171248     0.0076538033   0.0076538033   0              0              383.44481      745.73776      20.890282      0              37.364208      0              0              21.949612      21.986779      1              482.60129    
     10500   0.20085664     0.0073830312   0.0073830312   0              0              421.56786      719.17828      123.6629       0              35.159513      0              0              21.949393      21.986021      1              482.57981    
     10600   0.20398173     0.0073777383   0.0073777383   0              0              229.12242      646.49813     -188.54795      0              100.63163      0              0              21.949173      21.988822      1              482.63646    
     10700   0.21061749     0.0072597708   0.0072597708   0              0              449.36279      798.33935      100.09393      0              85.343619      0              0              21.948953      21.985783      1              482.56493    
     10800   0.18687388     0.0072002838   0.0072002838   0              0              450.19987      831.54211      68.577926      0              46.723108      0              0              21.948734      21.986381      1              482.57322    
     10900   0.20647125     0.0073512875   0.0073512875   0              0              292.88154      786.4259      -200.96432      0              27.179449      0              0              21.948514      21.988748      1              482.62034    
     11000   0.21289205     0.0075237534   0.0075237534   0              0              500.57526      814.39055      186.47664      0             -56.241167      0              0              21.948294      21.985288      1              482.53957    
     11100   0.20025159     0.0076007739   0.0076007739   0              0              332.48148      685.81375     -21.151505      0             -60.989717      0              0              21.948074      21.986272      1              482.55633    
     11200   0.19766012     0.007602523    0.007602523    0              0              222.58376      628.20637     -183.31674      0             -27.488346      0              0              21.947855      21.987474      1              482.57788    
     11300   0.18999054     0.0080232411   0.0080232411   0              0              536.12296      808.28226      263.68555      0             -24.057365      0              0              21.947635      21.983394      1              482.48351    
     11400   0.20378113     0.0083049778   0.0083049778   0              0              261.84155      663.68146     -140.28511      0              9.3720209      0              0              21.947415      21.986934      1              482.55637    
     11500   0.22425534     0.0083374954   0.0083374954   0              0              273.18161      659.70619     -113.62895      0              26.595135      0              0              21.947196      21.986527      1              482.54261    
     11600   0.20850481     0.0081652955   0.0081652955   0              0              552.70885      784.65875      320.46204      0             -17.244257      0              0              21.946976      21.982966      1              482.45963    
     11700   0.20346454     0.0081044995   0.0081044995   0              0              136.63995      562.61261     -289.62679      0             -52.971367      0              0              21.946756      21.988153      1              482.56864    
     11800   0.21915937     0.0078841837   0.0078841837   0              0              387.96467      767.43865      8.2122565      0             -49.979914      0              0              21.946536      21.985391      1              482.50318    
     11900   0.20104663     0.0078673942   0.0078673942   0              0              604.88162      893.05037      316.41247      0             -11.29729       0              0              21.946317      21.982445      1              482.43369    
     12000   0.20311741     0.0078025428   0.0078025428   0              0              87.202326      616.54274     -442.42004      0             -23.442788      0              0              21.946097      21.989696      1              482.58799    
     12100   0.20025466     0.0077266629   0.0077266629   0              0              537.24785      847.5065       226.70445      0              7.216231       0              0              21.945877      21.984196      1              482.46247    
     12200   0.21330384     0.0076160237   0.0076160237   0              0              549.86007      895.07719      204.3569       0             -24.767027      0              0              21.945657      21.983849      1              482.45001    
     12300   0.20975267     0.0075938147   0.0075938147   0              0              121.57612      765.65383     -522.78666      0             -91.628185      0              0              21.945438      21.990362      1              482.58812    
     12400   0.20613777     0.007732354    0.007732354    0              0              794.30375      1133.9087      454.41664      0             -90.757991      0              0              21.945218      21.982292      1              482.4062     
     12500   0.20414082     0.0076043086   0.0076043086   0              0              522.72469      1071.6565     -26.50014       0             -105.1014       0              0              21.944998      21.986736      1              482.49888    
     12600   0.20272574     0.0075198967   0.0075198967   0              0              254.94914      949.99916     -440.36034      0             -83.749622      0              0              21.944779      21.990849      1              482.58431    
     12700   0.19669627     0.0071665784   0.0071665784   0              0              944.74099      1315.5287      573.68136      0             -92.0888        0              0              21.944559      21.982237      1              482.39049    
     12800   0.18484963     0.0070526248   0.0070526248   0              0              420.19209      1103.9667     -263.85515      0             -38.070505      0              0              21.944339      21.989644      1              482.5482     
     12900   0.21067471     0.0069566296   0.0069566296   0              0              471.54207      1192.6172     -249.81166      0             -41.11192       0              0              21.944119      21.98975       1              482.54569    
     13000   0.21127318     0.0071654227   0.0071654227   0              0              1046.1111      1528.2819      563.66643      0             -54.294049      0              0              21.9439        21.982353      1              482.37856    
     13100   0.20389003     0.0074032632   0.0074032632   0              0              404.17149      1250.4275     -442.36622      0             -70.941659      0              0              21.94368       21.991348      1              482.57111    
     13200   0.19998926     0.007523366    0.007523366    0              0              687.48316      1384.5471     -9.8708597      0             -127.70023      0              0              21.94346       21.98742       1              482.48008    
     13300   0.19487408     0.0078010336   0.0078010336   0              0              1021.5255      1593.6981      449.06035      0             -92.354506      0              0              21.94324       21.982794      1              482.37374    
     13400   0.22599855     0.0079054035   0.0079054035   0              0              369.84869      1266.9623     -527.55204      0             -143.01439      0              0              21.943021      21.992104      1              482.5732     
     13500   0.20306178     0.0081780565   0.0081780565   0              0              849.4353       1486.1081      212.48599      0             -166.01337      0              0              21.942801      21.985842      1              482.43096    
     13600   0.20168261     0.0083529598   0.0083529598   0              0              895.51495      1552.8999      237.82871      0             -169.63271      0              0              21.942581      21.985612      1              482.42107    
     13700   0.21047551     0.0083467949   0.0083467949   0              0              391.01947      1265.841      -484.08702      0             -204.86586      0              0              21.942362      21.991944      1              482.55518    
     13800   0.2236067      0.0083757675   0.0083757675   0              0              956.29141      1544.757       367.54484      0             -142.22267      0              0              21.942142      21.984284      1              482.38227    
     13900   0.19758111     0.0083325792   0.0083325792   0              0              712.63103      1403.8012      21.160606      0             -134.17494      0              0              21.941922      21.987607      1              482.45036    
     14000   0.21450373     0.0082057466   0.0082057466   0              0              464.21889      1307.9098     -379.75249      0             -171.05326      0              0              21.941702      21.991772      1              482.53692    
     14100   0.21006544     0.0078609279   0.0078609279   0              0              1012.0181      1587.1979      436.55335      0             -175.79782      0              0              21.941483      21.984819      1              482.37952    
     14200   0.19809868     0.0076494231   0.0076494231   0              0              601.98599      1365.872      -162.19161      0             -178.33405      0              0              21.941263      21.991181      1              482.51429    
     14300   0.20168541     0.0077989421   0.0077989421   0              0              605.64337      1436.2931     -225.29272      0             -149.65269      0              0              21.941043      21.991366      1              482.51352    
     14400   0.20027243     0.0078041043   0.0078041043   0              0              1047.0652      1672.2345      421.6236       0             -139.03092      0              0              21.940823      21.98611       1              482.39335    
     14500   0.1990527      0.0076975148   0.0076975148   0              0              605.09253      1500.6964     -290.79889      0             -157.39955      0              0              21.940604      21.99271       1              482.53333    
     14600   0.20601068     0.0077796008   0.0077796008   0              0              803.16913      1652.4595     -46.412791      0             -179.95164      0              0              21.940384      21.989441      1              482.45679    
     14700   0.21217647     0.0078129484   0.0078129484   0              0              1024.489       1720.7207      327.95963      0             -216.21476      0              0              21.940164      21.985615      1              482.36801    
     14800   0.19915556     0.0078600255   0.0078600255   0              0              614.138        1577.2017     -349.20522      0             -201.64113      0              0              21.939945      21.991769      1              482.49819    
     14900   0.22091874     0.0080001437   0.0080001437   0              0              907.48259      1706.2513      108.42519      0             -220.30741      0              0              21.939725      21.98879       1              482.428      
     15000   0.2079451      0.0079862234   0.0079862234   0              0              980.1271       1759.8674      200.11245      0             -203.36513      0              0              21.939505      21.988427      1              482.4152     
     15100   0.19385196     0.0079147521   0.0079147521   0              0              662.88548      1673.834      -348.36089      0             -193.8203       0              0              21.939285      21.9929        1              482.50851    
     15200   0.17006795     0.0076454877   0.0076454877   0              0              1065.1094      1906.8167      223.12144      0             -201.07921      0              0              21.939066      21.987549      1              482.38628    
     15300   0.21011623     0.0075457961   0.0075457961   0              0              987.76622      1915.1514      60.090545      0             -168.61404      0              0              21.938846      21.989986      1              482.43491    
     15400   0.19041458     0.0076540854   0.0076540854   0              0              772.4477       1829.1394     -284.53094      0             -171.79011      0              0              21.938626      21.992541      1              482.48613    
     15500   0.20583216     0.0078623113   0.0078623113   0              0              1191.6872      2093.7768      289.32163      0             -179.85898      0              0              21.938407      21.986752      1              482.3543     
     15600   0.20109486     0.007811721    0.007811721    0              0              910.11875      1892.8728     -72.91547       0             -175.7401       0              0              21.938187      21.990432      1              482.4302     
     15700   0.20730694     0.0077439067   0.0077439067   0              0              841.27769      1875.7022     -193.42996      0             -208.81163      0              0              21.937967      21.991763      1              482.45457    
     15800   0.20064916     0.0078587022   0.0078587022   0              0              1134.5028      1985.0094      283.69866      0             -236.20872      0              0              21.937747      21.987454      1              482.35521    
     15900   0.2043242      0.0079461006   0.0079461006   0              0              850.60097      1860.0745     -159.16977      0             -229.02566      0              0              21.937528      21.990826      1              482.42436    
     16000   0.19411362     0.0082818913   0.0082818913   0              0              896.57729      1866.0261     -73.156096      0             -239.2945       0              0              21.937308      21.989217      1              482.38422    
     16100   0.22110265     0.0083540134   0.0083540134   0              0              1151.4551      2060.7938      241.84119      0             -228.34169      0              0              21.937088      21.985949      1              482.3077     
     16200   0.19166574     0.0083240859   0.0083240859   0              0              847.6399       1920.3753     -225.38852      0             -228.55789      0              0              21.936868      21.990261      1              482.39747    
     16300   0.18018202     0.0082005161   0.0082005161   0              0              1035.5332      2039.7654      31.035282      0             -222.57581      0              0              21.936649      21.987898      1              482.34079    
     16400   0.19752722     0.0082634591   0.0082634591   0              0              1128.9147      2095.3154      162.2152       0             -208.06999      0              0              21.936429      21.986767      1              482.31115    
     16500   0.19301856     0.0081806451   0.0081806451   0              0              926.26563      2084.0157     -231.77397      0             -189.99478      0              0              21.936209      21.990801      1              482.3948     
     16600   0.194565       0.0080385342   0.0080385342   0              0              1151.857       2180.5019      122.93319      0             -197.82343      0              0              21.93599       21.987683      1              482.32158    
     16700   0.19928326     0.007726858    0.007726858    0              0              1100.4197      2132.943       67.60842       0             -242.94232      0              0              21.93577       21.988444      1              482.33344    
     16800   0.17828202     0.0076184329   0.0076184329   0              0              952.80294      2092.9247     -187.6183       0             -251.63449      0              0              21.93555       21.990623      1              482.37642    
     16900   0.19258447     0.0075641415   0.0075641415   0              0              1155.3071      2155.9026      154.42189      0             -198.70198      0              0              21.93533       21.987157      1              482.29555    
     17000   0.19015346     0.0075651242   0.0075651242   0              0              998.30789      2013.4868     -17.156062      0             -167.03663      0              0              21.935111      21.98896       1              482.33027    
     17100   0.20864065     0.0078220173   0.0078220173   0              0              951.65483      2014.2254     -111.17952      0             -186.68021      0              0              21.934891      21.989748      1              482.34273    
     17200   0.18640973     0.0078001075   0.0078001075   0              0              1131.983       2122.2937      141.39096      0             -125.68525      0              0              21.934671      21.986702      1              482.27109    
     17300   0.19335414     0.0077296069   0.0077296069   0              0              1000.2377      2076.8868     -76.710881      0             -98.066275      0              0              21.934451      21.988563      1              482.30707    
     17400   0.19487083     0.0075882103   0.0075882103   0              0              1012.9655      2060.5414     -34.870914      0             -88.75589       0              0              21.934232      21.988164      1              482.29349    
     17500   0.19668596     0.0076077903   0.0076077903   0              0              1090.5522      2079.236       101.57747      0             -21.546351      0              0              21.934012      21.986685      1              482.25622    
     17600   0.19992801     0.0076668931   0.0076668931   0              0              949.91553      1994.1276     -94.594723      0             -14.765545      0              0              21.933792      21.98892       1              482.30041    
     17700   0.21407132     0.0078021929   0.0078021929   0              0              988.37309      1967.0054      9.4655598      0             -1.1467204      0              0              21.933573      21.988322      1              482.28246    
     17800   0.19639416     0.0080485577   0.0080485577   0              0              1037.1285      2017.9163      56.036815      0              8.1881709      0              0              21.933353      21.98795       1              482.26946    
     17900   0.21270143     0.0082647397   0.0082647397   0              0              1004.348       2079.5265     -71.131292      0             -9.6523539      0              0              21.933133      21.989363      1              482.29563    
     18000   0.19523392     0.0082905586   0.0082905586   0              0              1079.6981      2112.5167      46.591318      0             -6.6573293      0              0              21.932913      21.988617      1              482.27444    
     18100   0.1957611      0.0082859825   0.0082859825   0              0              1042.9497      2068.0383      17.565312      0             -59.203363      0              0              21.932694      21.988823      1              482.27413    
     18200   0.19860375     0.0085133284   0.0085133284   0              0              1020.6375      2118.3058     -77.318179      0             -67.177714      0              0              21.932474      21.989484      1              482.28379    
     18300   0.1857479      0.0084246766   0.0084246766   0              0              1131.6561      2192.5748      70.451371      0             -72.408485      0              0              21.932254      21.98821       1              482.251      
     18400   0.19554307     0.0083873304   0.0083873304   0              0              1081.8696      2176.5834     -13.112491      0             -82.45637       0              0              21.932035      21.988927      1              482.2619     
     18500   0.20327055     0.0083693019   0.0083693019   0              0              1018.9159      2094.6904     -57.154991      0             -100.20898      0              0              21.931815      21.989916      1              482.27876    
     18600   0.21628386     0.0080778777   0.0080778777   0              0              1043.9999      2004.9168      82.785809      0             -132.02337      0              0              21.931595      21.988314      1              482.23879    
     18700   0.21064356     0.0081391264   0.0081391264   0              0              866.18598      1788.5626     -56.476558      0             -165.57098      0              0              21.931375      21.990298      1              482.27749    
     18800   0.2020303      0.0081332999   0.0081332999   0              0              856.34516      1738.004      -25.604099      0             -210.22481      0              0              21.931156      21.990804      1              482.28374    
     18900   0.2018736      0.0079117614   0.0079117614   0              0              983.24166      1885.326       80.880881      0             -195.41616      0              0              21.930936      21.990119      1              482.26388    
     19000   0.18713611     0.0079677832   0.0079677832   0              0              921.47777      1910.2265     -67.555904      0             -207.28871      0              0              21.930716      21.990689      1              482.27155    
     19100   0.20809059     0.0080574498   0.0080574498   0              0              970.24611      1940.1211      0.077290379    0             -177.97098      0              0              21.930496      21.989776      1              482.24672    
     19200   0.19401281     0.0079346785   0.0079346785   0              0              974.37968      1892.4068      56.077325      0             -131.85802      0              0              21.930277      21.989672      1              482.23958    
     19300   0.20391706     0.0078880037   0.0078880037   0              0              861.96086      1806.6628     -83.030745      0             -99.041292      0              0              21.930057      21.990902      1              482.26173    
     19400   0.19832772     0.008024499    0.008024499    0              0              967.41149      1886.5715      47.981538      0             -129.41473      0              0              21.929837      21.989842      1              482.23366    
     19500   0.19902676     0.007910574    0.007910574    0              0              988.25918      1937.1327      39.12178       0             -138.52849      0              0              21.929618      21.990588      1              482.24518    
     19600   0.19613398     0.0079143923   0.0079143923   0              0              901.78384      1893.7978     -90.504152      0             -131.40031      0              0              21.929398      21.992131      1              482.27418    
     19700   0.18476596     0.007722868    0.007722868    0              0              998.43961      1917.7529      78.839711      0             -111.58815      0              0              21.929178      21.991094      1              482.24661    
     19800   0.19319433     0.0075623735   0.0075623735   0              0              938.20381      1878.2354     -2.1112081      0             -168.07636      0              0              21.928958      21.991814      1              482.25756    
     19900   0.20435809     0.0075003945   0.0075003945   0              0              887.52275      1859.8746     -85.113924      0             -161.47097      0              0              21.928739      21.993234      1              482.28387    
     20000   0.1974606      0.0075037338   0.0075037338   0              0              1062.6419      2007.3122      117.68949      0             -148.11401      0              0              21.928519      21.99148       1              482.24059    
     20100   0.18185422     0.0074715508   0.0074715508   0              0              944.53652      1935.5826     -46.801028      0             -150.75926      0              0              21.928299      21.99267       1              482.26185    
     20200   0.18715593     0.0075514922   0.0075514922   0              0              889.62118      1866.6752     -87.746681      0             -156.48878      0              0              21.928079      21.99433       1              482.29341    
     20300   0.2105973      0.0076895778   0.0076895778   0              0              1076.0949      1967.3524      184.5455       0             -145.03316      0              0              21.92786       21.992392      1              482.24609    
     20400   0.21519869     0.0076841975   0.0076841975   0              0              866.14369      1868.3435     -136.33141      0             -190.83196      0              0              21.92764       21.995337      1              482.30584    
     20500   0.19264956     0.0077717687   0.0077717687   0              0              937.84127      1921.272      -45.876043      0             -181.71428      0              0              21.92742       21.994495      1              482.28253    
     20600   0.20654497     0.008027447    0.008027447    0              0              1163.6625      2093.8987      233.12888      0             -223.7455       0              0              21.927201      21.991382      1              482.20944    
     20700   0.18484133     0.008175181    0.008175181    0              0              866.07691      1974.879      -243.0119       0             -249.81512      0              0              21.926981      21.995866      1              482.30293    
     20800   0.19401826     0.0084763517   0.0084763517   0              0              1075.7812      2112.4914      38.783386      0             -220.97016      0              0              21.926761      21.993591      1              482.24822    
     20900   0.18646656     0.0087171075   0.0087171075   0              0              1273.2968      2316.4264      229.88715      0             -231.80128      0              0              21.926541      21.991793      1              482.20395    
     21000   0.18909271     0.0088192091   0.0088192091   0              0              946.50238      2212.1122     -319.38586      0             -215.78953      0              0              21.926322      21.996234      1              482.29651    
     21100   0.19690843     0.0088833838   0.0088833838   0              0              1284.9112      2410.0847      159.45351      0             -94.269754      0              0              21.926102      21.992124      1              482.20155    
     21200   0.1951487      0.0089527102   0.0089527102   0              0              1277.4289      2410.6491      143.94238      0              0.14990422     0              0              21.925882      21.99276       1              482.21066    
     21300   0.18651787     0.0090406633   0.0090406633   0              0              978.21849      2299.4596     -343.30796      0              49.414895      0              0              21.925663      21.997251      1              482.30431    
     21400   0.1991682      0.0088083118   0.0088083118   0              0              1416.7315      2569.662       263.52993      0              65.33611       0              0              21.925443      21.992058      1              482.18561    
     21500   0.19267752     0.008397494    0.008397494    0              0              1279.6524      2520.0315      38.973974      0              86.410876      0              0              21.925223      21.994218      1              482.22814    
     21600   0.19727429     0.0083428483   0.0083428483   0              0              1043.6759      2423.0624     -335.98974      0              119.62626      0              0              21.925003      21.997471      1              482.29462    
     21700   0.2038528      0.0082694829   0.0082694829   0              0              1485.4348      2605.3914      365.19439      0              150.51334      0              0              21.924784      21.990971      1              482.14728    
     21800   0.21443766     0.008279319    0.008279319    0              0              1164.7033      2427.0548     -97.909046      0              122.85513      0              0              21.924564      21.994957      1              482.22983    
     21900   0.18521302     0.0081646436   0.0081646436   0              0              1042.6652      2347.3224     -262.28403      0              55.678894      0              0              21.924344      21.99653       1              482.25949    
     22000   0.19995516     0.0080849376   0.0080849376   0              0              1489.0111      2557.3132      420.4207       0              42.695029      0              0              21.924124      21.990519      1              482.12287    
     22100   0.20475663     0.008064603    0.008064603    0              0              1009.0534      2268.7484     -250.95957      0              42.999992      0              0              21.923905      21.996202      1              482.24264    
     22200   0.20664052     0.0081525919   0.0081525919   0              0              1107.1416      2346.9309     -132.92047      0              25.147906      0              0              21.923685      21.994695      1              482.20476    
     22300   0.20330369     0.0083765453   0.0083765453   0              0              1513.6439      2598.5538      428.47035      0              37.30864       0              0              21.923465      21.989613      1              482.08852    
     22400   0.19790072     0.0083227731   0.0083227731   0              0              933.29628      2263.2201     -396.92858      0              43.128876      0              0              21.923246      21.997758      1              482.26226    
     22500   0.19824359     0.0085159365   0.0085159365   0              0              1228.236       2417.9117      38.271049      0              49.893311      0              0              21.923026      21.994093      1              482.17707    
     22600   0.18864064     0.008345343    0.008345343    0              0              1428.5794      2498.9393      357.96052      0              45.985605      0              0              21.922806      21.990808      1              482.10022    
     22700   0.20058477     0.0081161847   0.0081161847   0              0              890.28193      2247.4794     -467.2022       0              83.821424      0              0              21.922586      21.998969      1              482.27429    
     22800   0.19439848     0.0077516943   0.0077516943   0              0              1342.3513      2485.2812      199.14353      0              86.296001      0              0              21.922367      21.993448      1              482.14843    
     22900   0.19978111     0.0077263336   0.0077263336   0              0              1333.4387      2444.3656      222.21981      0              84.721578      0              0              21.922147      21.993558      1              482.14602    
     23000   0.20906074     0.0078668232   0.0078668232   0              0              876.50836      2224.0531     -471.32257      0              64.026522      0              0              21.921927      21.999944      1              482.28116    
     23100   0.19753009     0.0077685062   0.0077685062   0              0              1404.3929      2471.4659      337.03104      0              61.726414      0              0              21.921707      21.992985      1              482.12378    
     23200   0.20889878     0.0077182346   0.0077182346   0              0              1212.8137      2357.5944      67.739744      0              62.913216      0              0              21.921488      21.995389      1              482.17165    
     23300   0.19278548     0.0077483795   0.0077483795   0              0              859.6264       2136.4934     -417.53195      0              43.364252      0              0              21.921268      21.999859      1              482.26481    
     23400   0.20203796     0.0077953779   0.0077953779   0              0              1397.8466      2375.1826      420.21944      0             -4.8512308      0              0              21.921048      21.99265       1              482.10194    
     23500   0.20957578     0.008014034    0.008014034    0              0              1025.1415      2139.2157     -89.22971       0             -24.387698      0              0              21.920829      21.997839      1              482.21086    
     23600   0.19176828     0.0078463722   0.0078463722   0              0              847.62562      2003.4955     -308.51418      0             -22.868809      0              0              21.920609      22.00015       1              482.25667    
     23700   0.21858783     0.0078761579   0.0078761579   0              0              1352.8108      2263.4898      441.85276      0             -26.409798      0              0              21.920389      21.993357      1              482.10295    
     23800   0.2011511      0.0077732564   0.0077732564   0              0              915.10541      2041.7749     -211.86227      0              12.686039      0              0              21.920169      21.999705      1              482.23726    
     23900   0.19289433     0.008060365    0.008060365    0              0              995.07068      2163.182      -173.33938      0              61.504523      0              0              21.91995       21.999999      1              482.23886    
     24000   0.1915294      0.0081675652   0.0081675652   0              0              1433.7062      2471.0031      396.10233      0              45.582075      0              0              21.91973       21.995102      1              482.1267     
     24100   0.19625359     0.0082983406   0.0082983406   0              0              1025.2646      2335.6195     -285.38348      0              10.656266      0              0              21.91951       22.00179       1              482.26845    
     24200   0.21036323     0.0085312423   0.0085312423   0              0              1204.4195      2447.6869     -39.144017      0             -29.652882      0              0              21.91929       22.000318      1              482.23136    
     24300   0.19176205     0.0083710122   0.0083710122   0              0              1456.7203      2612.552       300.61608      0             -3.8553847      0              0              21.919071      21.997138      1              482.15682    
     24400   0.19799048     0.0081468339   0.0081468339   0              0              1048.0391      2398.2416     -302.46508      0             -2.1272572      0              0              21.918851      22.002234      1              482.26368    
     24500   0.19296143     0.0078963483   0.0078963483   0              0              1249.5451      2431.8583      66.941061      0              59.407255      0              0              21.918631      21.999067      1              482.18943    
     24600   0.19376288     0.0078774792   0.0078774792   0              0              1326.2328      2455.1159      197.07196      0              108.71643      0              0              21.918412      21.997833      1              482.15756    
     24700   0.2022707      0.0079496555   0.0079496555   0              0              975.68801      2227.0074     -275.92307      0              163.02795      0              0              21.918192      22.002251      1              482.24957    
     24800   0.19404923     0.0079677403   0.0079677403   0              0              1253.4535      2379.7056      126.92953      0              146.39426      0              0              21.917972      21.999256      1              482.17909    
     24900   0.21293508     0.0079996165   0.0079996165   0              0              1191.1948      2282.6153      99.475846      0              123.0104       0              0              21.917752      22.001426      1              482.2218     
     25000   0.19510916     0.007972386    0.007972386    0              0              955.8542       2134.3829     -222.94393      0              168.32863      0              0              21.917533      22.005334      1              482.30264    
     25100   0.18819115     0.0079423462   0.0079423462   0              0              1237.1483      2320.7396      153.26108      0              153.54732      0              0              21.917313      22.001864      1              482.22174    
     25200   0.18900467     0.0078128922   0.0078128922   0              0              1147.2674      2273.5232      20.7258        0              185.43306      0              0              21.917093      22.003909      1              482.26172    
     25300   0.1992725      0.007963209    0.007963209    0              0              1054.4573      2264.5373     -155.91596      0              254.64383      0              0              21.916874      22.005728      1              482.29676    
     25400   0.20393782     0.0084840844   0.0084840844   0              0              1304.7455      2454.1105      155.10059      0              271.6329       0              0              21.916654      22.003279      1              482.23825    
     25500   0.20102081     0.0084289207   0.0084289207   0              0              1144.9951      2317.2761     -27.574371      0              197.24702      0              0              21.916434      22.005345      1              482.2787     
     25600   0.19031963     0.0085328868   0.0085328868   0              0              1046.0376      2188.9273     -97.118227      0              148.00577      0              0              21.916214      22.006127      1              482.291      
     25700   0.21420204     0.0086449335   0.0086449335   0              0              1187.8568      2234.0424      141.3845       0              186.90197      0              0              21.915995      22.003865      1              482.23659    
     25800   0.20641618     0.0087035263   0.0087035263   0              0              1001.9566      2076.4337     -72.797359      0              191.72438      0              0              21.915775      22.00599       1              482.27832    
     25900   0.20406583     0.0087618779   0.0087618779   0              0              1036.3523      2127.2086     -54.778009      0              184.23202      0              0              21.915555      22.006188      1              482.27782    
     26000   0.19457761     0.0089201908   0.0089201908   0              0              1139.3966      2149.3136      129.1908       0              222.72918      0              0              21.915335      22.004645      1              482.23918    
     26100   0.21329474     0.0087945578   0.0087945578   0              0              991.77636      2089.9535     -106.68022      0              217.18154      0              0              21.915116      22.007214      1              482.29065    
     26200   0.19620132     0.0086544311   0.0086544311   0              0              1066.6459      2147.7013     -14.697241      0              238.07848      0              0              21.914896      22.006206      1              482.26372    
     26300   0.20257087     0.0084148968   0.0084148968   0              0              1192.4929      2277.739       106.97101      0              208.42391      0              0              21.914676      22.00491       1              482.23048    
     26400   0.20014678     0.0084342623   0.0084342623   0              0              1100.3819      2309.6006     -109.11237      0              230.37177      0              0              21.914457      22.006682      1              482.26447    
     26500   0.1967279      0.0083440657   0.0083440657   0              0              1183.6996      2347.4956      19.610186      0              204.26873      0              0              21.914237      22.005657      1              482.23717    
     26600   0.18505851     0.0085489437   0.0085489437   0              0              1204.1733      2334.652       73.402453      0              221.89101      0              0              21.914017      22.004939      1              482.2166     
     26700   0.18903508     0.008718758    0.008718758    0              0              1053.4304      2217.5539     -110.98802      0              216.00199      0              0              21.913797      22.006023      1              482.23553    
     26800   0.20205042     0.0088930397   0.0088930397   0              0              1143.8699      2244.5077      42.938888      0              179.49069      0              0              21.913578      22.005074      1              482.20989    
     26900   0.2008314      0.0090558504   0.0090558504   0              0              1118.3276      2175.0683      61.302777      0              200.93383      0              0              21.913358      22.005495      1              482.21429    
     27000   0.19922968     0.0089395925   0.0089395925   0              0              1015.7746      2134.0034     -102.73468      0              230.83288      0              0              21.913138      22.007232      1              482.24751    
     27100   0.21768614     0.0087902233   0.0087902233   0              0              1147.8236      2235.3451      59.989342      0              272.80583      0              0              21.912918      22.005661      1              482.20827    
     27200   0.20214929     0.008749071    0.008749071    0              0              1114.7444      2195.7838      33.448617      0              260.7461       0              0              21.912699      22.005789      1              482.20622    
     27300   0.19463087     0.0087764061   0.0087764061   0              0              991.72588      2075.6824     -92.528768      0              275.69409      0              0              21.912479      22.006499      1              482.21696    
     27400   0.20545623     0.0089381954   0.0089381954   0              0              1048.3029      2013.716       82.610362      0              246.86661      0              0              21.912259      22.004951      1              482.17818    
     27500   0.21018549     0.0090784519   0.0090784519   0              0              989.54842      1971.1502      7.6670692      0              229.03556      0              0              21.91204       22.005994      1              482.19621    
     27600   0.19368586     0.0090435266   0.0090435266   0              0              980.74311      2053.1025     -91.896948      0              170.96004      0              0              21.91182       22.006691      1              482.20665    
     27700   0.19497168     0.0094051509   0.0094051509   0              0              1143.837       2184.302       103.10002      0              114.92795      0              0              21.9116        22.004835      1              482.16114    
[...]
    192800   0.21471068     0.021481778    0.021481778    0              0              3316.3431      6999.1836     -366.77965      0              577.94738      0              0              21.548835      22.267873      1              479.84673    
    192900   0.2004453      0.021697372    0.021697372    0              0              3827.8924      7253.4858      402.01351      0              603.61445      0              0              21.548615      22.261371      1              479.70173    
    193000   0.20582779     0.021731722    0.021731722    0              0              3784.9517      7258.8353      310.78947      0              627.09953      0              0              21.548396      22.262441      1              479.71988    
    193100   0.20870277     0.02185928     0.02185928     0              0              3344.9315      7034.6788     -345.06955      0              637.44832      0              0              21.548176      22.268869      1              479.85351    
    193200   0.21130054     0.022077808    0.022077808    0              0              3375.6723      6994.8618     -243.80746      0              595.26447      0              0              21.547956      22.268418      1              479.83888    
    193300   0.19731025     0.022052149    0.022052149    0              0              3702.67        7147.2336      257.82908      0              617.80417      0              0              21.547736      22.264469      1              479.74892    
    193400   0.19893879     0.022047634    0.022047634    0              0              3647.7209      7120.0257      175.14657      0              640.91947      0              0              21.547517      22.265034      1              479.75619    
    193500   0.19037173     0.021936671    0.021936671    0              0              3374.2871      6953.463      -205.17191      0              699.53835      0              0              21.547297      22.268592      1              479.82795    
    193600   0.19542926     0.02208104     0.02208104     0              0              3463.0318      7056.558      -130.7719       0              693.33807      0              0              21.547077      22.267333      1              479.79594    
    193700   0.19551289     0.021947882    0.021947882    0              0              3676.642       7179.8483      173.15093      0              726.0334       0              0              21.546857      22.26479       1              479.73627    
    193800   0.2024358      0.022217287    0.022217287    0              0              3595.7966      7084.5684      106.74465      0              693.73734      0              0              21.546638      22.266083      1              479.75922    
    193900   0.20418774     0.022505802    0.022505802    0              0              3421.7701      6993.1131     -149.86163      0              653.11026      0              0              21.546418      22.268658      1              479.80982    
    194000   0.20785821     0.022626767    0.022626767    0              0              3472.558       7043.7972     -98.967737      0              666.56617      0              0              21.546198      22.268418      1              479.79975    
    194100   0.19989991     0.022460544    0.022460544    0              0              3641.1033      7145.457       136.45746      0              683.60474      0              0              21.545979      22.266004      1              479.74284    
    194200   0.20331468     0.02202846     0.02202846     0              0              3603.3165      7109.9618      96.383016      0              648.10697      0              0              21.545759      22.266405      1              479.74659    
    194300   0.20696071     0.02207931     0.02207931     0              0              3424.1778      6976.1447     -128.05878      0              630.87145      0              0              21.545539      22.268295      1              479.78241    
    194400   0.20732449     0.021825975    0.021825975    0              0              3457.3939      7007.0202     -92.520685      0              582.19157      0              0              21.545319      22.267487      1              479.76012    
    194500   0.22713602     0.021750303    0.021750303    0              0              3643.853       7165.0278      122.40489      0              571.62126      0              0              21.5451        22.265002      1              479.70169    
    194600   0.19802361     0.021817976    0.021817976    0              0              3670.4164      7252.3283      88.208417      0              590.20924      0              0              21.54488       22.264894      1              479.69448    
    194700   0.20099327     0.021846392    0.021846392    0              0              3563.1934      7240.7107     -114.63844      0              574.94186      0              0              21.54466       22.267028      1              479.73555    
    194800   0.21592145     0.021670454    0.021670454    0              0              3561.1675      7213.7821     -91.718106      0              570.07458      0              0              21.54444       22.267284      1              479.73618    
    194900   0.19990749     0.021764946    0.021764946    0              0              3698.4864      7278.9423      117.73937      0              542.86068      0              0              21.544221      22.265494      1              479.69272    
    195000   0.20197851     0.022018382    0.022018382    0              0              3661.9582      7243.1505      80.495201      0              560.24298      0              0              21.544001      22.265986      1              479.69842    
    195100   0.20992962     0.021908717    0.021908717    0              0              3473.7691      7066.7879     -119.53321      0              612.50062      0              0              21.543781      22.267458      1              479.72524    
    195200   0.20999592     0.021901184    0.021901184    0              0              3472.8022      7029.225      -83.900304      0              622.35481      0              0              21.543562      22.266557      1              479.70094    
    195300   0.20509269     0.021902717    0.021902717    0              0              3643.1568      7159.7574      126.25275      0              591.4874       0              0              21.543342      22.26412       1              479.64355    
    195400   0.20226762     0.021691959    0.021691959    0              0              3639.7968      7200.1177      79.201789      0              586.23428      0              0              21.543122      22.26412       1              479.63865    
    195500   0.18880796     0.021751206    0.021751206    0              0              3515.7654      7160.9987     -129.75759      0              604.07071      0              0              21.542902      22.265816      1              479.67029    
    195600   0.19241204     0.022046694    0.022046694    0              0              3550.889       7191.3976     -89.903628      0              541.48         0              0              21.542683      22.265412      1              479.6567     
    195700   0.22212415     0.022157028    0.022157028    0              0              3731.6678      7333.5979      129.46067      0              555.30778      0              0              21.542463      22.263932      1              479.61993    
    195800   0.1983003      0.022370622    0.022370622    0              0              3735.357       7366.8137      103.61721      0              564.53625      0              0              21.542243      22.264195      1              479.6207     
    195900   0.20248497     0.022395811    0.022395811    0              0              3607.8763      7358.9147     -143.44498      0              594.14717      0              0              21.542024      22.26676       1              479.67107    
    196000   0.21125568     0.022452292    0.022452292    0              0              3620.1362      7362.7934     -122.79417      0              562.10235      0              0              21.541804      22.26729       1              479.6776     
    196100   0.20469306     0.022255583    0.022255583    0              0              3812.3046      7469.3639      154.96076      0              554.91473      0              0              21.541584      22.265524      1              479.63465    
    196200   0.18923142     0.022256012    0.022256012    0              0              3816.3083      7485.6687      146.64548      0              496.42983      0              0              21.541364      22.265586      1              479.63109    
    196300   0.19947398     0.022321727    0.022321727    0              0              3645.1936      7460.5701     -170.44932      0              433.32775      0              0              21.541145      22.268244      1              479.68347    
    196400   0.1929889      0.022124215    0.022124215    0              0              3622.0741      7414.7872     -170.93181      0              445.89956      0              0              21.540925      22.268675      1              479.68785    
    196500   0.2127554      0.022103917    0.022103917    0              0              3851.3218      7497.3456      205.00025      0              431.59029      0              0              21.540705      22.265702      1              479.61892    
    196600   0.19264432     0.022173459    0.022173459    0              0              3869.8387      7529.5311      209.85395      0              401.35491      0              0              21.540485      22.265984      1              479.62011    
    196700   0.2206895      0.022009556    0.022009556    0              0              3605.2335      7444.6885     -234.50452      0              388.38041      0              0              21.540266      22.269742      1              479.69616    
    196800   0.20379742     0.021815374    0.021815374    0              0              3598.3153      7443.5865     -247.25665      0              421.21962      0              0              21.540046      22.269708      1              479.69053    
    196900   0.21137301     0.02203722     0.02203722     0              0              3912.0671      7548.0286      275.81657      0              404.84167      0              0              21.539826      22.266102      1              479.60797    
    197000   0.21975579     0.022334898    0.022334898    0              0              3912.5294      7541.2269      283.53273      0              440.63155      0              0              21.539607      22.266361      1              479.60866    
    197100   0.2080864      0.022320355    0.022320355    0              0              3533.4812      7363.7895     -297.10527      0              428.16624      0              0              21.539387      22.271165      1              479.70724    
    197200   0.19391672     0.022024662    0.022024662    0              0              3490.1835      7297.5792     -317.4997       0              460.31001      0              0              21.539167      22.271731      1              479.71454    
    197300   0.20692755     0.021883784    0.021883784    0              0              3875.4562      7416.0392      334.60589      0              461.16653      0              0              21.538947      22.266175      1              479.58996    
    197400   0.19638806     0.022100467    0.022100467    0              0              3881.6605      7403.0399      360.00036      0              393.68581      0              0              21.538728      22.266214      1              479.58591    
    197500   0.21904221     0.022038977    0.022038977    0              0              3408.6964      7179.2395     -362.13418      0              314.27695      0              0              21.538508      22.272692      1              479.72055    
    197600   0.1992197      0.021804399    0.021804399    0              0              3376.0333      7143.8596     -392.08272      0              305.8834       0              0              21.538288      22.272088      1              479.70266    
    197700   0.20360549     0.021685035    0.021685035    0              0              3866.4345      7358.9201      373.64724      0              274.0723       0              0              21.538068      22.265631      1              479.55869    
    197800   0.21184365     0.021665263    0.021665263    0              0              3896.9894      7385.328       408.34715      0              290.95947      0              0              21.537849      22.265567      1              479.55242    
    197900   0.21364319     0.021735334    0.021735334    0              0              3373.8391      7125.0726     -377.67776      0              292.30501      0              0              21.537629      22.273291      1              479.71388    
    198000   0.20940796     0.021966182    0.021966182    0              0              3349.0304      7106.2126     -408.43517      0              265.03122      0              0              21.537409      22.273999      1              479.72423    
    198100   0.19120287     0.02219893     0.02219893     0              0              3893.6149      7407.8331      379.11269      0              243.26303      0              0              21.53719       22.267415      1              479.57754    
    198200   0.20413135     0.022068889    0.022068889    0              0              3934.3685      7457.4333      411.00731      0              230.91836      0              0              21.53697       22.266604      1              479.55518    
    198300   0.21206972     0.022100562    0.022100562    0              0              3435.0169      7227.2927     -357.54564      0              221.58509      0              0              21.53675       22.273035      1              479.68879    
    198400   0.19479077     0.02204547     0.02204547     0              0              3390.9319      7190.0138     -408.4522       0              204.67479      0              0              21.53653       22.273151      1              479.68639    
    198500   0.19294817     0.02194028     0.02194028     0              0              3828.199       7325.9485      330.185        0              232.83042      0              0              21.536311      22.266634      1              479.54116    
    198600   0.20121271     0.021700375    0.021700375    0              0              3878.2259      7354.6087      401.57201      0              211.51446      0              0              21.536091      22.265081      1              479.5028     
    198700   0.20885189     0.022008294    0.022008294    0              0              3385.6516      7076.8994     -305.87738      0              322.42695      0              0              21.535871      22.271225      1              479.63024    
    198800   0.21379387     0.022067943    0.022067943    0              0              3313.6599      7000.0061     -372.96562      0              327.04446      0              0              21.535652      22.271601      1              479.63343    
    198900   0.19191868     0.022288065    0.022288065    0              0              3699.8024      7119.6432      279.68215      0              304.1546       0              0              21.535432      22.266425      1              479.51708    
    199000   0.20416755     0.022330361    0.022330361    0              0              3754.2047      7155.6138      352.51831      0              294.3378       0              0              21.535212      22.265616      1              479.49476    
    199100   0.20717148     0.022221051    0.022221051    0              0              3336.8664      6934.8246     -261.36797      0              310.29038      0              0              21.534992      22.271306      1              479.6124     
    199200   0.2078549      0.022280016    0.022280016    0              0              3301.3072      6944.9781     -342.63466      0              319.19565      0              0              21.534773      22.271787      1              479.61786    
    199300   0.19747026     0.022181092    0.022181092    0              0              3694.6161      7147.9678      240.9854       0              323.77715      0              0              21.534553      22.267439      1              479.51935    
    199400   0.20678254     0.021868598    0.021868598    0              0              3728.1251      7129.4664      326.48035      0              290.47168      0              0              21.534333      22.267583      1              479.51756    
    199500   0.19681835     0.021686815    0.021686815    0              0              3406.9476      7023.2713     -209.6483       0              320.15465      0              0              21.534113      22.272135      1              479.61068    
    199600   0.20365845     0.021629917    0.021629917    0              0              3382.3578      7075.8876     -311.46183      0              354.00607      0              0              21.533894      22.272252      1              479.60832    
    199700   0.20308707     0.021832026    0.021832026    0              0              3719.1362      7234.3753      203.60931      0              390.50858      0              0              21.533674      22.267473      1              479.5005     
    199800   0.19122715     0.022152372    0.022152372    0              0              3748.7957      7193.0975      304.22115      0              401.05286      0              0              21.533454      22.267167      1              479.48903    
    199900   0.20004372     0.022241375    0.022241375    0              0              3421.736       7032.4848     -189.28964      0              407.06505      0              0              21.533235      22.271615      1              479.5799     
    200000   0.1930159      0.022171836    0.022171836    0              0              3331.8127      6950.2541     -286.91079      0              438.12148      0              0              21.533015      22.272774      1              479.59998    
    200006   0.20153093     0.022176353    0.022176353    0              0              3609.2285      7081.3717      136.78568      0              443.33347      0              0              21.533002      22.269103      1              479.52062    
Loop time of 41.2735 on 4 procs for 200000 steps with 499 atoms

Performance: 4186.705 ns/day, 0.006 hours/ns, 4845.723 timesteps/s
96.9% CPU use with 4 MPI tasks x 1 OpenMP threads

MPI task timing breakdown:
Section |  min time  |  avg time  |  max time  |%varavg| %total
---------------------------------------------------------------
Pair    | 0          | 0          | 0          |   0.0 |  0.00
Bond    | 19.636     | 20.372     | 21.011     |  11.2 | 49.36
Neigh   | 0          | 0          | 0          |   0.0 |  0.00
Comm    | 11.289     | 11.882     | 12.591     |  13.9 | 28.79
Output  | 0.11777    | 0.13318    | 0.17847    |   7.2 |  0.32
Modify  | 7.8688     | 7.8853     | 7.9149     |   0.6 | 19.10
Other   |            | 1.002      |            |       |  2.43

Nlocal:         124.75 ave         127 max         121 min
Histogram: 1 0 0 0 0 0 1 0 1 1
Nghost:          867.5 ave         876 max         856 min
Histogram: 1 0 0 1 0 0 0 0 0 2
Neighs:              0 ave           0 max           0 min
Histogram: 4 0 0 0 0 0 0 0 0 0

Total # of neighbors = 0
Ave neighs/atom = 0
Ave special neighs/atom = 25.963928
Neighbor list builds = 0
Dangerous builds = 0
Total wall time: 0:00:41
