ITEM: TIMESTEP
0
ITEM: NUMBER OF ATOMS
100
ITEM: BOX BOUNDS pp pp pp
-7.0000000000000000e+00 7.0000000000000000e+00
-7.0000000000000000e+00 7.0000000000000000e+00
-1.0000000000000001e-01 1.0000000000000001e-01
ITEM: ATOMS id type xs ys zs
43 2 0.00172693 0.0245208 0.5
45 2 0.0823474 0.0127058 0.5
48 2 0.146964 0.0286853 0.5
80 4 0.180104 0.00554284 0.5
1 1 0.81948 0.00745818 0.5
57 3 0.906411 0.0433927 0.5
66 3 0.0436811 0.148757 0.5
74 3 0.26537 0.080881 0.5
16 1 0.346767 0.11553 0.5
61 3 0.377054 0.13818 0.5
5 1 0.542224 0.153532 0.5
25 1 0.550075 0.110923 0.5
21 1 0.719647 0.105508 0.5
29 2 0.980013 0.0769856 0.5
32 2 0.992094 0.124458 0.5
8 1 0.0640331 0.205054 0.5
6 1 0.674134 0.173442 0.5
54 3 0.811937 0.224142 0.5
23 1 0.911776 0.213435 0.5
9 1 0.0837309 0.265311 0.5
10 1 0.17667 0.291454 0.5
67 3 0.268713 0.262465 0.5
47 2 0.413953 0.300494 0.5
76 4 0.465238 0.247882 0.5
40 2 0.614225 0.286336 0.5
91 4 0.628562 0.247403 0.5
38 2 0.741078 0.303995 0.5
79 4 0.771717 0.24626 0.5
88 4 0.980261 0.238517 0.5
26 2 0.0850447 0.345518 0.5
56 3 0.230161 0.321111 0.5
97 4 0.244325 0.366244 0.5
94 4 0.365763 0.380133 0.5
36 2 0.713593 0.352244 0.5
78 4 0.766308 0.330256 0.5
68 3 0.840383 0.313272 0.5
35 2 0.851751 0.375912 0.5
31 2 0.190303 0.429162 0.5
19 1 0.277649 0.450327 0.5
13 1 0.384985 0.446543 0.5
59 3 0.449123 0.409596 0.5
72 3 0.60852 0.395641 0.5
3 1 0.765004 0.424538 0.5
92 4 0.742749 0.389281 0.5
85 4 0.805164 0.397021 0.5
49 2 0.914705 0.45263 0.5
50 2 0.855443 0.437228 0.5
51 3 0.0008638 0.517891 0.5
77 4 0.0446562 0.536759 0.5
82 4 0.022103 0.485395 0.5
17 1 0.0835078 0.515181 0.5
98 4 0.136521 0.516477 0.5
87 4 0.320494 0.53736 0.5
4 1 0.43229 0.497061 0.5
60 3 0.515888 0.530534 0.5
53 3 0.794938 0.517892 0.5
44 2 0.185253 0.546685 0.5
7 1 0.26284 0.544494 0.5
39 2 0.253502 0.610795 0.5
100 4 0.722949 0.603513 0.5
70 3 0.826061 0.611947 0.5
90 4 0.796368 0.557031 0.5
41 2 0.872052 0.572726 0.5
11 1 0.0751253 0.6309 0.5
46 2 0.183714 0.689152 0.5
28 2 0.431227 0.630752 0.5
33 2 0.487751 0.624363 0.5
22 1 0.588841 0.656501 0.5
52 3 0.605856 0.618768 0.5
71 3 0.639535 0.671811 0.5
27 2 0.736755 0.645344 0.5
95 4 0.0142048 0.739293 0.5
20 1 0.105594 0.71323 0.5
37 2 0.15599 0.726269 0.5
93 4 0.223701 0.746719 0.5
64 3 0.285936 0.718588 0.5
58 3 0.596461 0.713307 0.5
18 1 0.796855 0.742341 0.5
84 4 0.914784 0.769213 0.5
99 4 0.888185 0.721656 0.5
83 4 0.972196 0.702761 0.5
2 1 0.123153 0.833531 0.5
89 4 0.181403 0.839336 0.5
34 2 0.480624 0.846078 0.5
73 3 0.518345 0.824665 0.5
81 4 0.469852 0.802544 0.5
65 3 0.645908 0.772324 0.5
75 3 0.790611 0.799909 0.5
12 1 0.847193 0.769406 0.5
86 4 0.0751414 0.901035 0.5
55 3 0.112327 0.881903 0.5
69 3 0.532154 0.908289 0.5
30 2 0.652222 0.887389 0.5
42 2 0.707732 0.856252 0.5
62 3 0.833276 0.875457 0.5
24 1 0.26233 0.982039 0.5
96 4 0.416371 0.941656 0.5
63 3 0.513476 0.990888 0.5
14 1 0.586659 0.97934 0.5
15 1 0.62087 0.957144 0.5
ITEM: TIMESTEP
50
ITEM: NUMBER OF ATOMS
100
ITEM: BOX BOUNDS pp pp pp
-6.0027238046787739e+00 6.0027238046787739e+00
-6.0027238046787739e+00 6.0027238046787739e+00
-1.0000000000000001e-01 1.0000000000000001e-01
ITEM: ATOMS id type xs ys zs
43 2 0.00163917 0.018774 0.5
45 2 0.0809455 0.0111734 0.5
48 2 0.146761 0.0329442 0.5
80 4 0.182755 0.00297343 0.5
1 1 0.817806 0.00672583 0.5
57 3 0.905175 0.0432977 0.5
66 3 0.0467389 0.146515 0.5
74 3 0.263172 0.0813194 0.5
16 1 0.343431 0.112284 0.5
61 3 0.38262 0.14236 0.5
5 1 0.540556 0.161283 0.5
25 1 0.551419 0.103394 0.5
21 1 0.722086 0.101853 0.5
29 2 0.978026 0.0763249 0.5
32 2 0.988772 0.128224 0.5
8 1 0.0660537 0.204298 0.5
6 1 0.672929 0.175524 0.5
54 3 0.814156 0.221639 0.5
23 1 0.909908 0.212633 0.5
9 1 0.0827796 0.266608 0.5
10 1 0.17484 0.289262 0.5
67 3 0.271584 0.259886 0.5
47 2 0.412727 0.301549 0.5
76 4 0.466777 0.246303 0.5
40 2 0.612247 0.290914 0.5
91 4 0.629361 0.244153 0.5
38 2 0.737553 0.297051 0.5
79 4 0.769665 0.245366 0.5
88 4 0.981483 0.240027 0.5
26 2 0.0838897 0.350127 0.5
56 3 0.231869 0.321839 0.5
97 4 0.246191 0.368011 0.5
94 4 0.364313 0.377272 0.5
36 2 0.703178 0.352244 0.5
78 4 0.772281 0.330251 0.5
68 3 0.841758 0.30955 0.5
35 2 0.857322 0.371463 0.5
31 2 0.186614 0.429248 0.5
19 1 0.278977 0.448516 0.5
13 1 0.381201 0.447351 0.5
59 3 0.452919 0.405739 0.5
72 3 0.608425 0.395874 0.5
3 1 0.760561 0.435142 0.5
92 4 0.740374 0.390152 0.5
85 4 0.805068 0.394671 0.5
49 2 0.919999 0.454602 0.5
50 2 0.856485 0.442572 0.5
51 3 0.992396 0.52054 0.5
77 4 0.043872 0.542288 0.5
82 4 0.0206974 0.478055 0.5
17 1 0.0878698 0.511848 0.5
98 4 0.13825 0.514688 0.5
87 4 0.325248 0.537597 0.5
4 1 0.433623 0.502484 0.5
60 3 0.518214 0.530565 0.5
53 3 0.794081 0.514682 0.5
44 2 0.184391 0.548206 0.5
7 1 0.262778 0.543062 0.5
39 2 0.254767 0.616288 0.5
100 4 0.721375 0.598897 0.5
70 3 0.825121 0.616582 0.5
90 4 0.793592 0.559096 0.5
41 2 0.877739 0.570952 0.5
11 1 0.0736481 0.629067 0.5
46 2 0.188568 0.681864 0.5
28 2 0.426047 0.631337 0.5
33 2 0.491143 0.624051 0.5
22 1 0.581578 0.656321 0.5
52 3 0.60705 0.609924 0.5
71 3 0.648195 0.673671 0.5
27 2 0.737476 0.649279 0.5
95 4 0.0148823 0.741154 0.5
20 1 0.0982232 0.71507 0.5
37 2 0.156627 0.731191 0.5
93 4 0.225695 0.750314 0.5
64 3 0.288022 0.717932 0.5
58 3 0.593447 0.719545 0.5
18 1 0.791093 0.73519 0.5
84 4 0.919511 0.771302 0.5
99 4 0.890449 0.716318 0.5
83 4 0.970516 0.701194 0.5
2 1 0.121008 0.827701 0.5
89 4 0.186324 0.839436 0.5
34 2 0.475291 0.851744 0.5
73 3 0.525997 0.822022 0.5
81 4 0.465829 0.796563 0.5
65 3 0.646941 0.773621 0.5
75 3 0.786247 0.805722 0.5
12 1 0.851033 0.772773 0.5
86 4 0.0700694 0.904625 0.5
55 3 0.114439 0.886123 0.5
69 3 0.531822 0.907806 0.5
30 2 0.650324 0.885003 0.5
42 2 0.711373 0.854787 0.5
62 3 0.833697 0.877135 0.5
24 1 0.264314 0.98007 0.5
96 4 0.416371 0.941656 0.5
63 3 0.509264 0.992649 0.5
14 1 0.584372 0.985488 0.5
15 1 0.627315 0.957038 0.5
ITEM: TIMESTEP
100
ITEM: NUMBER OF ATOMS
100
ITEM: BOX BOUNDS pp pp pp
-6.0810319281388860e+00 6.0810319281388860e+00
-6.0810319281388860e+00 6.0810319281388860e+00
-1.0000000000000001e-01 1.0000000000000001e-01
ITEM: ATOMS id type xs ys zs
43 2 0.00034496 0.00390449 0.5
45 2 0.0782432 0.00665058 0.5
48 2 0.147151 0.0451752 0.5
80 4 0.188288 0.995999 0.5
1 1 0.812905 0.00442763 0.5
57 3 0.901583 0.0430332 0.5
66 3 0.0553707 0.139111 0.5
74 3 0.256173 0.0824968 0.5
16 1 0.336411 0.104348 0.5
61 3 0.396642 0.153031 0.5
5 1 0.536647 0.180355 0.5
25 1 0.554366 0.0867158 0.5
21 1 0.728369 0.0923639 0.5
29 2 0.973778 0.0744543 0.5
32 2 0.979394 0.137762 0.5
8 1 0.0726138 0.202176 0.5
6 1 0.670517 0.179683 0.5
54 3 0.818497 0.214727 0.5
23 1 0.905603 0.210877 0.5
9 1 0.0790974 0.270723 0.5
10 1 0.171379 0.283386 0.5
67 3 0.27919 0.252966 0.5
47 2 0.409923 0.303687 0.5
76 4 0.470713 0.242278 0.5
40 2 0.60624 0.301408 0.5
91 4 0.63043 0.23727 0.5
38 2 0.728 0.281758 0.5
79 4 0.76524 0.24206 0.5
88 4 0.984213 0.244236 0.5
26 2 0.0807197 0.36287 0.5
56 3 0.236326 0.323514 0.5
97 4 0.250779 0.371837 0.5
94 4 0.360305 0.37014 0.5
36 2 0.679228 0.352526 0.5
78 4 0.784428 0.33039 0.5
68 3 0.845517 0.299291 0.5
35 2 0.87216 0.36195 0.5
31 2 0.176869 0.429232 0.5
19 1 0.281687 0.443915 0.5
13 1 0.373398 0.449314 0.5
59 3 0.462118 0.396522 0.5
72 3 0.607372 0.397372 0.5
3 1 0.748196 0.459128 0.5
92 4 0.735289 0.390973 0.5
85 4 0.804723 0.38903 0.5
49 2 0.933147 0.458269 0.5
50 2 0.858825 0.455472 0.5
51 3 0.973443 0.52789 0.5
77 4 0.0410293 0.554344 0.5
82 4 0.0174361 0.46091 0.5
17 1 0.0946778 0.501417 0.5
98 4 0.143514 0.509838 0.5
87 4 0.337653 0.538854 0.5
4 1 0.436443 0.515923 0.5
60 3 0.525411 0.530154 0.5
53 3 0.792903 0.509496 0.5
44 2 0.182759 0.553799 0.5
7 1 0.262813 0.539592 0.5
39 2 0.260147 0.62885 0.5
100 4 0.717172 0.587314 0.5
70 3 0.824076 0.628009 0.5
90 4 0.786707 0.564533 0.5
41 2 0.891329 0.566276 0.5
11 1 0.0706552 0.625426 0.5
46 2 0.197619 0.665159 0.5
28 2 0.412748 0.632852 0.5
33 2 0.4974 0.62291 0.5
22 1 0.565445 0.656582 0.5
52 3 0.611076 0.588958 0.5
71 3 0.666673 0.678274 0.5
27 2 0.738586 0.656854 0.5
95 4 0.0148879 0.746701 0.5
20 1 0.0814665 0.718269 0.5
37 2 0.159191 0.741778 0.5
93 4 0.23077 0.759749 0.5
64 3 0.293871 0.716351 0.5
58 3 0.585797 0.734284 0.5
18 1 0.77846 0.71958 0.5
84 4 0.932272 0.776137 0.5
99 4 0.895424 0.702783 0.5
83 4 0.966558 0.696984 0.5
2 1 0.114014 0.816271 0.5
89 4 0.198632 0.840142 0.5
34 2 0.461165 0.864777 0.5
73 3 0.543856 0.814826 0.5
81 4 0.456885 0.78218 0.5
65 3 0.650216 0.777093 0.5
75 3 0.776625 0.818102 0.5
12 1 0.859775 0.781593 0.5
86 4 0.0571966 0.912962 0.5
55 3 0.121075 0.897366 0.5
69 3 0.532111 0.907153 0.5
30 2 0.644226 0.877658 0.5
42 2 0.719749 0.852463 0.5
62 3 0.835131 0.882691 0.5
24 1 0.270268 0.974438 0.5
96 4 0.416338 0.941709 0.5
63 3 0.497597 0.996831 0.5
14 1 0.58002 0.999868 0.5
15 1 0.643902 0.958038 0.5
ITEM: TIMESTEP
150
ITEM: NUMBER OF ATOMS
100
ITEM: BOX BOUNDS pp pp pp
-6.0062893942398237e+00 6.0062893942398237e+00
-6.0062893942398237e+00 6.0062893942398237e+00
-1.0000000000000001e-01 1.0000000000000001e-01
ITEM: ATOMS id type xs ys zs
43 2 0.995208 0.982737 0.5
45 2 0.0766937 8.4866e-05 0.5
48 2 0.14901 0.0645836 0.5
80 4 0.193907 0.98566 0.5
1 1 0.806307 -0.000386905 0.5
57 3 0.896221 0.0422097 0.5
66 3 0.0671781 0.124178 0.5
74 3 0.243956 0.0833152 0.5
16 1 0.329734 0.0938939 0.5
61 3 0.415521 0.167606 0.5
5 1 0.533673 0.20346 0.5
25 1 0.557188 0.0720075 0.5
21 1 0.73597 0.0803591 0.5
29 2 0.970421 0.0718004 0.5
32 2 0.966943 0.152302 0.5
8 1 0.0825288 0.197522 0.5
6 1 0.668545 0.18135 0.5
54 3 0.822132 0.203948 0.5
23 1 0.901114 0.208694 0.5
9 1 0.0713035 0.279603 0.5
10 1 0.169226 0.275178 0.5
67 3 0.288832 0.243542 0.5
47 2 0.407208 0.305049 0.5
76 4 0.473948 0.238622 0.5
40 2 0.594754 0.312226 0.5
91 4 0.629762 0.230793 0.5
38 2 0.713786 0.266258 0.5
79 4 0.761319 0.235794 0.5
88 4 0.987483 0.250063 0.5
26 2 0.0768683 0.380942 0.5
56 3 0.243026 0.324442 0.5
97 4 0.256002 0.377067 0.5
94 4 0.353927 0.360692 0.5
36 2 0.654416 0.354091 0.5
78 4 0.795369 0.330597 0.5
68 3 0.849666 0.284326 0.5
35 2 0.89442 0.353362 0.5
31 2 0.166334 0.426101 0.5
19 1 0.28356 0.438073 0.5
13 1 0.367353 0.450645 0.5
59 3 0.473185 0.386148 0.5
72 3 0.603223 0.402821 0.5
3 1 0.728053 0.485961 0.5
92 4 0.730522 0.389363 0.5
85 4 0.804112 0.38442 0.5
49 2 0.948951 0.458689 0.5
50 2 0.860176 0.47037 0.5
51 3 0.955019 0.538267 0.5
77 4 0.0351965 0.56655 0.5
82 4 0.0145774 0.440441 0.5
17 1 0.0946259 0.486406 0.5
98 4 0.153147 0.503488 0.5
87 4 0.353857 0.541987 0.5
4 1 0.440654 0.532527 0.5
60 3 0.537116 0.528678 0.5
53 3 0.794793 0.506311 0.5
44 2 0.180332 0.565461 0.5
7 1 0.263515 0.534907 0.5
39 2 0.271609 0.642565 0.5
100 4 0.710196 0.572076 0.5
70 3 0.826289 0.640909 0.5
90 4 0.779034 0.573066 0.5
41 2 0.904501 0.561677 0.5
11 1 0.0688281 0.62095 0.5
46 2 0.203173 0.647611 0.5
28 2 0.394289 0.635648 0.5
33 2 0.501252 0.619522 0.5
22 1 0.54979 0.658997 0.5
52 3 0.618075 0.563123 0.5
71 3 0.682236 0.684617 0.5
27 2 0.73902 0.660787 0.5
95 4 0.011291 0.756116 0.5
20 1 0.0620086 0.71913 0.5
37 2 0.165336 0.752676 0.5
93 4 0.238298 0.771927 0.5
64 3 0.302534 0.715643 0.5
58 3 0.576742 0.751523 0.5
18 1 0.766038 0.707376 0.5
84 4 0.950816 0.781152 0.5
99 4 0.899754 0.685833 0.5
83 4 0.962936 0.691127 0.5
2 1 0.102055 0.807891 0.5
89 4 0.213928 0.841729 0.5
34 2 0.442872 0.877979 0.5
73 3 0.563314 0.807426 0.5
81 4 0.447182 0.7649 0.5
65 3 0.656056 0.78083 0.5
75 3 0.767847 0.829987 0.5
12 1 0.869483 0.793228 0.5
86 4 0.040332 0.921644 0.5
55 3 0.131961 0.913164 0.5
69 3 0.534936 0.907355 0.5
30 2 0.632566 0.866429 0.5
42 2 0.72831 0.852379 0.5
62 3 0.837387 0.891526 0.5
24 1 0.279948 0.966855 0.5
96 4 0.415458 0.943287 0.5
63 3 0.479565 1.00022 0.5
14 1 0.576251 0.0143015 0.5
15 1 0.668239 0.961033 0.5
ITEM: TIMESTEP
200
ITEM: NUMBER OF ATOMS
100
ITEM: BOX BOUNDS pp pp pp
-5.9296264391779854e+00 5.9296264391779854e+00
-5.9296264391779854e+00 5.9296264391779854e+00
-1.0000000000000001e-01 1.0000000000000001e-01
ITEM: ATOMS id type xs ys zs
43 2 0.983231 0.959376 0.5
45 2 0.0783243 0.995088 0.5
48 2 0.151876 0.0867883 0.5
80 4 0.197619 0.97479 0.5
1 1 0.800001 0.991111 0.5
57 3 0.888985 0.0408655 0.5
66 3 0.0774525 0.102702 0.5
74 3 0.228614 0.0838198 0.5
16 1 0.326993 0.0832016 0.5
61 3 0.43505 0.182557 0.5
5 1 0.534574 0.223816 0.5
25 1 0.557533 0.0688811 0.5
21 1 0.742198 0.0701684 0.5
29 2 0.970513 0.0687222 0.5
32 2 0.957602 0.168747 0.5
8 1 0.0934834 0.18955 0.5
6 1 0.667721 0.174512 0.5
54 3 0.82223 0.188379 0.5
23 1 0.898309 0.206655 0.5
9 1 0.0594655 0.294237 0.5
10 1 0.170964 0.265884 0.5
67 3 0.299191 0.232961 0.5
47 2 0.406006 0.30402 0.5
76 4 0.472825 0.237837 0.5
40 2 0.576383 0.318678 0.5
91 4 0.625166 0.228124 0.5
38 2 0.697607 0.257491 0.5
79 4 0.760048 0.227385 0.5
88 4 0.989487 0.256069 0.5
26 2 0.0721397 0.397682 0.5
56 3 0.251689 0.322832 0.5
97 4 0.259913 0.382069 0.5
94 4 0.344743 0.35052 0.5
36 2 0.636165 0.355899 0.5
78 4 0.803278 0.328511 0.5
68 3 0.852587 0.269194 0.5
35 2 0.920455 0.347684 0.5
31 2 0.16124 0.4172 0.5
19 1 0.282375 0.432284 0.5
13 1 0.367518 0.450516 0.5
59 3 0.484821 0.376036 0.5
72 3 0.594835 0.415399 0.5
3 1 0.701016 0.508086 0.5
92 4 0.726505 0.386966 0.5
85 4 0.804786 0.384514 0.5
49 2 0.964185 0.45512 0.5
50 2 0.861116 0.481534 0.5
51 3 0.943681 0.549221 0.5
77 4 0.0254743 0.574348 0.5
82 4 0.0124009 0.41818 0.5
17 1 0.0858939 0.474693 0.5
98 4 0.167709 0.497705 0.5
87 4 0.369328 0.548008 0.5
4 1 0.446618 0.547722 0.5
60 3 0.551109 0.524798 0.5
53 3 0.799557 0.50455 0.5
44 2 0.174247 0.579795 0.5
7 1 0.265552 0.530836 0.5
39 2 0.288684 0.654185 0.5
100 4 0.700308 0.559035 0.5
70 3 0.83416 0.651028 0.5
90 4 0.772732 0.584353 0.5
41 2 0.91085 0.563238 0.5
11 1 0.0709759 0.616909 0.5
46 2 0.20302 0.634731 0.5
28 2 0.374 0.640472 0.5
33 2 0.499923 0.613562 0.5
22 1 0.540475 0.665323 0.5
52 3 0.626636 0.537106 0.5
71 3 0.686332 0.692742 0.5
27 2 0.737766 0.654042 0.5
95 4 0.00409492 0.76893 0.5
20 1 0.0439056 0.715399 0.5
37 2 0.17474 0.760051 0.5
93 4 0.249628 0.784534 0.5
64 3 0.313964 0.718811 0.5
58 3 0.567411 0.764632 0.5
18 1 0.76047 0.709155 0.5
84 4 0.971034 0.786891 0.5
99 4 0.90199 0.668443 0.5
83 4 0.961217 0.68479 0.5
2 1 0.0875628 0.808198 0.5
89 4 0.229135 0.844901 0.5
34 2 0.424332 0.886295 0.5
73 3 0.579002 0.804858 0.5
81 4 0.437369 0.747305 0.5
65 3 0.665043 0.781777 0.5
75 3 0.765787 0.836665 0.5
12 1 0.877467 0.803798 0.5
86 4 0.0241596 0.925527 0.5
55 3 0.144208 0.929389 0.5
69 3 0.538869 0.908161 0.5
30 2 0.61814 0.856731 0.5
42 2 0.73207 0.857417 0.5
62 3 0.840162 0.902511 0.5
24 1 0.293022 0.958334 0.5
96 4 0.411992 0.94858 0.5
63 3 0.457855 0.00290108 0.5
14 1 0.575562 0.0205271 0.5
15 1 0.69716 0.965244 0.5
ITEM: TIMESTEP
250
ITEM: NUMBER OF ATOMS
100
ITEM: BOX BOUNDS pp pp pp
-5.8716762762027024e+00 5.8716762762027024e+00
-5.8716762762027024e+00 5.8716762762027024e+00
-1.0000000000000001e-01 1.0000000000000001e-01
ITEM: ATOMS id type xs ys zs
43 2 0.962713 0.938533 0.5
45 2 0.0814251 0.993268 0.5
48 2 0.155712 0.107555 0.5
80 4 0.202161 0.966607 0.5
1 1 0.798017 0.980538 0.5
57 3 0.880453 0.0396154 0.5
66 3 0.081673 0.0779075 0.5
74 3 0.2154 0.0838862 0.5
16 1 0.327804 0.0734028 0.5
61 3 0.450785 0.193212 0.5
5 1 0.539755 0.239345 0.5
25 1 0.553262 0.0789625 0.5
21 1 0.746866 0.0669892 0.5
29 2 0.97444 0.0653569 0.5
32 2 0.955467 0.181847 0.5
8 1 0.102468 0.180921 0.5
6 1 0.667839 0.157297 0.5
54 3 0.817841 0.167197 0.5
23 1 0.89706 0.205142 0.5
9 1 0.0473519 0.311943 0.5
10 1 0.176301 0.257058 0.5
67 3 0.309629 0.222242 0.5
47 2 0.406727 0.301163 0.5
76 4 0.467465 0.24152 0.5
40 2 0.553247 0.322325 0.5
91 4 0.616158 0.229297 0.5
38 2 0.682534 0.25801 0.5
79 4 0.761168 0.218584 0.5
88 4 0.988603 0.261387 0.5
26 2 0.0684669 0.407685 0.5
56 3 0.261774 0.316952 0.5
97 4 0.26085 0.384134 0.5
94 4 0.333104 0.340827 0.5
36 2 0.626972 0.356979 0.5
78 4 0.809248 0.323781 0.5
68 3 0.853283 0.258776 0.5
35 2 0.946743 0.342583 0.5
31 2 0.163424 0.402577 0.5
19 1 0.278386 0.429129 0.5
13 1 0.375329 0.44934 0.5
59 3 0.4958 0.36692 0.5
72 3 0.583167 0.434604 0.5
3 1 0.675787 0.518296 0.5
92 4 0.722499 0.384913 0.5
85 4 0.806634 0.38931 0.5
49 2 0.975415 0.453074 0.5
50 2 0.864671 0.487044 0.5
51 3 0.942291 0.557474 0.5
77 4 0.0113997 0.577206 0.5
82 4 0.00761492 0.392136 0.5
17 1 0.0735696 0.474681 0.5
98 4 0.185039 0.49287 0.5
87 4 0.380193 0.554905 0.5
4 1 0.453579 0.557926 0.5
60 3 0.563387 0.519021 0.5
53 3 0.801233 0.504026 0.5
44 2 0.163427 0.589955 0.5
7 1 0.270002 0.530444 0.5
39 2 0.303281 0.661986 0.5
100 4 0.691809 0.555871 0.5
70 3 0.84387 0.658004 0.5
90 4 0.769366 0.594158 0.5
41 2 0.907746 0.572591 0.5
11 1 0.0775086 0.613793 0.5
46 2 0.201847 0.62974 0.5
28 2 0.359054 0.645309 0.5
33 2 0.496191 0.606212 0.5
22 1 0.536824 0.676902 0.5
52 3 0.630953 0.51258 0.5
71 3 0.678028 0.702008 0.5
27 2 0.734193 0.636591 0.5
95 4 0.996621 0.78211 0.5
20 1 0.0303957 0.706886 0.5
37 2 0.18457 0.764002 0.5
93 4 0.265497 0.795254 0.5
64 3 0.327063 0.72954 0.5
58 3 0.555073 0.770421 0.5
18 1 0.763135 0.724986 0.5
84 4 0.985989 0.797065 0.5
99 4 0.904148 0.651225 0.5
83 4 0.959827 0.678211 0.5
2 1 0.0744202 0.816993 0.5
89 4 0.243245 0.851347 0.5
34 2 0.406912 0.888413 0.5
73 3 0.591219 0.805923 0.5
81 4 0.427549 0.729697 0.5
65 3 0.676696 0.780257 0.5
75 3 0.773012 0.837106 0.5
12 1 0.884108 0.812674 0.5
86 4 0.0129254 0.922908 0.5
55 3 0.155468 0.941404 0.5
69 3 0.540772 0.91025 0.5
30 2 0.607694 0.855015 0.5
42 2 0.728291 0.867472 0.5
62 3 0.844004 0.912551 0.5
24 1 0.307862 0.948569 0.5
96 4 0.405109 0.957205 0.5
63 3 0.437719 0.00815177 0.5
14 1 0.579567 0.0143308 0.5
15 1 0.72043 0.967404 0.5
ITEM: TIMESTEP
300
ITEM: NUMBER OF ATOMS
100
ITEM: BOX BOUNDS pp pp pp
-5.8479123930007022e+00 5.8479123930007022e+00
-5.8479123930007022e+00 5.8479123930007022e+00
-1.0000000000000001e-01 1.0000000000000001e-01
ITEM: ATOMS id type xs ys zs
43 2 0.935122 0.920588 0.5
45 2 0.0823928 0.989657 0.5
48 2 0.160786 0.127523 0.5
80 4 0.211862 0.961765 0.5
1 1 0.802514 0.969927 0.5
57 3 0.87237 0.039575 0.5
66 3 0.0813136 0.0541103 0.5
74 3 0.208261 0.0811215 0.5
16 1 0.329812 0.065364 0.5
61 3 0.461408 0.195706 0.5
5 1 0.547423 0.249487 0.5
25 1 0.544724 0.0990162 0.5
21 1 0.751426 0.0716426 0.5
29 2 0.980009 0.0621559 0.5
32 2 0.962317 0.188728 0.5
8 1 0.104634 0.17558 0.5
6 1 0.667562 0.135365 0.5
54 3 0.810946 0.141956 0.5
23 1 0.895352 0.203024 0.5
9 1 0.0434437 0.324524 0.5
10 1 0.183357 0.250359 0.5
67 3 0.319914 0.21168 0.5
47 2 0.407974 0.298851 0.5
76 4 0.460004 0.24996 0.5
40 2 0.530521 0.326059 0.5
91 4 0.606227 0.230598 0.5
38 2 0.671318 0.264797 0.5
79 4 0.762424 0.210785 0.5
88 4 0.985764 0.264234 0.5
26 2 0.0695077 0.412821 0.5
56 3 0.270855 0.306295 0.5
97 4 0.258388 0.380928 0.5
94 4 0.322543 0.332727 0.5
36 2 0.62441 0.358438 0.5
78 4 0.813743 0.318059 0.5
68 3 0.850419 0.253568 0.5
35 2 0.964989 0.336924 0.5
31 2 0.168763 0.384844 0.5
19 1 0.274054 0.430591 0.5
13 1 0.389215 0.447899 0.5
59 3 0.501819 0.362047 0.5
72 3 0.568955 0.452619 0.5
3 1 0.659419 0.51973 0.5
92 4 0.718817 0.383039 0.5
85 4 0.808599 0.397306 0.5
49 2 0.978327 0.455812 0.5
50 2 0.872201 0.486577 0.5
51 3 0.949012 0.560574 0.5
77 4 -0.00380051 0.578141 0.5
82 4 8.36092e-05 0.365511 0.5
17 1 0.0648835 0.487435 0.5
98 4 0.200106 0.488074 0.5
87 4 0.385049 0.560772 0.5
4 1 0.459582 0.560655 0.5
60 3 0.56859 0.516199 0.5
53 3 0.795954 0.505371 0.5
44 2 0.150819 0.591791 0.5
7 1 0.277787 0.535851 0.5
39 2 0.308175 0.667289 0.5
100 4 0.688894 0.563108 0.5
70 3 0.849907 0.664691 0.5
90 4 0.771305 0.598286 0.5
41 2 0.895701 0.585448 0.5
11 1 0.084716 0.610747 0.5
46 2 0.20533 0.632862 0.5
28 2 0.354523 0.645823 0.5
33 2 0.495438 0.600428 0.5
22 1 0.536487 0.690953 0.5
52 3 0.628311 0.485682 0.5
71 3 0.662107 0.708999 0.5
27 2 0.72714 0.618489 0.5
95 4 0.989081 0.788843 0.5
20 1 0.0217248 0.697243 0.5
37 2 0.19293 0.766455 0.5
93 4 0.284537 0.803454 0.5
64 3 0.341369 0.748619 0.5
58 3 0.53697 0.772704 0.5
18 1 0.772778 0.746121 0.5
84 4 0.992688 0.816257 0.5
99 4 0.907976 0.635982 0.5
83 4 0.956663 0.671303 0.5
2 1 0.0684464 0.831282 0.5
89 4 0.255545 0.861412 0.5
34 2 0.39178 0.883784 0.5
73 3 0.603903 0.804573 0.5
81 4 0.418108 0.71239 0.5
65 3 0.688236 0.780882 0.5
75 3 0.78712 0.833891 0.5
12 1 0.890837 0.819482 0.5
86 4 0.00894878 0.917209 0.5
55 3 0.16343 0.948181 0.5
69 3 0.538959 0.913496 0.5
30 2 0.603376 0.862497 0.5
42 2 0.71779 0.879308 0.5
62 3 0.850257 0.919126 0.5
24 1 0.319052 0.938196 0.5
96 4 0.39728 0.966875 0.5
63 3 0.421043 0.0179103 0.5
14 1 0.588196 -0.000635105 0.5
15 1 0.732278 0.967419 0.5
ITEM: TIMESTEP
350
ITEM: NUMBER OF ATOMS
100
ITEM: BOX BOUNDS pp pp pp
-5.8680894835915680e+00 5.8680894835915680e+00
-5.8680894835915680e+00 5.8680894835915680e+00
-1.0000000000000001e-01 1.0000000000000001e-01
ITEM: ATOMS id type xs ys zs
43 2 0.90889 0.90596 0.5
45 2 0.0804522 0.980004 0.5
48 2 0.168007 0.146112 0.5
80 4 0.22785 0.959137 0.5
1 1 0.81162 0.960578 0.5
57 3 0.866524 0.0419279 0.5
66 3 0.0814241 0.0375107 0.5
74 3 0.206542 0.0734255 0.5
16 1 0.329442 0.0602638 0.5
61 3 0.468943 0.190399 0.5
5 1 0.55466 0.255539 0.5
25 1 0.533572 0.122368 0.5
21 1 0.756164 0.0782247 0.5
29 2 0.984355 0.0592626 0.5
32 2 0.977611 0.189503 0.5
8 1 0.0965887 0.173023 0.5
6 1 0.664543 0.116148 0.5
54 3 0.806074 0.117917 0.5
23 1 0.891702 0.197889 0.5
9 1 0.0548665 0.327754 0.5
10 1 0.191502 0.246441 0.5
67 3 0.329985 0.201338 0.5
47 2 0.4069 0.299407 0.5
76 4 0.452334 0.26089 0.5
40 2 0.510077 0.328257 0.5
91 4 0.599748 0.227376 0.5
38 2 0.66632 0.272398 0.5
79 4 0.762899 0.204296 0.5
88 4 0.982353 0.263469 0.5
26 2 0.075338 0.415839 0.5
56 3 0.277369 0.291366 0.5
97 4 0.253931 0.371944 0.5
94 4 0.316536 0.327457 0.5
36 2 0.623516 0.362245 0.5
78 4 0.816553 0.314313 0.5
68 3 0.843495 0.252058 0.5
35 2 0.96652 0.330748 0.5
31 2 0.172641 0.365873 0.5
19 1 0.273318 0.435096 0.5
13 1 0.405831 0.446262 0.5
59 3 0.501377 0.365845 0.5
72 3 0.549182 0.461714 0.5
3 1 0.650875 0.520655 0.5
92 4 0.716055 0.381418 0.5
85 4 0.810458 0.406242 0.5
49 2 0.974195 0.458715 0.5
50 2 0.881865 0.481851 0.5
51 3 0.95785 0.557105 0.5
77 4 0.985435 0.580832 0.5
82 4 0.991951 0.347332 0.5
17 1 0.0609023 0.508553 0.5
98 4 0.209869 0.483593 0.5
87 4 0.384771 0.564663 0.5
4 1 0.463245 0.554881 0.5
60 3 0.564772 0.521606 0.5
53 3 0.78555 0.507961 0.5
44 2 0.14137 0.585606 0.5
7 1 0.288581 0.546917 0.5
39 2 0.303267 0.674299 0.5
100 4 0.688431 0.573981 0.5
70 3 0.850958 0.675005 0.5
90 4 0.781001 0.598545 0.5
41 2 0.875641 0.59408 0.5
11 1 0.0875566 0.609549 0.5
46 2 0.213521 0.641641 0.5
28 2 0.358722 0.641155 0.5
33 2 0.500756 0.599664 0.5
22 1 0.538202 0.702987 0.5
52 3 0.626671 0.450833 0.5
71 3 0.643931 0.711967 0.5
27 2 0.716828 0.609504 0.5
95 4 0.978766 0.786471 0.5
20 1 0.0174435 0.691722 0.5
37 2 0.200416 0.768568 0.5
93 4 0.303524 0.81043 0.5
64 3 0.357371 0.770994 0.5
58 3 0.514807 0.778627 0.5
18 1 0.785767 0.761934 0.5
84 4 0.995728 0.843323 0.5
99 4 0.914323 0.625278 0.5
83 4 0.950723 0.664579 0.5
2 1 0.0718754 0.847171 0.5
89 4 0.26475 0.872845 0.5
34 2 0.381635 0.872364 0.5
73 3 0.617734 0.797553 0.5
81 4 0.411183 0.696178 0.5
65 3 0.698726 0.78507 0.5
75 3 0.803234 0.833486 0.5
12 1 0.896998 0.821654 0.5
86 4 0.00903286 0.912231 0.5
55 3 0.167352 0.951256 0.5
69 3 0.531585 0.916763 0.5
30 2 0.602467 0.87557 0.5
42 2 0.70336 0.888257 0.5
62 3 0.856998 0.921536 0.5
24 1 0.32257 0.930039 0.5
96 4 0.391352 0.97538 0.5
63 3 0.409875 0.0319463 0.5
14 1 0.600251 0.983517 0.5
15 1 0.732973 0.968338 0.5
ITEM: TIMESTEP
400
ITEM: NUMBER OF ATOMS
100
ITEM: BOX BOUNDS pp pp pp
-5.9110346236604165e+00 5.9110346236604165e+00
-5.9110346236604165e+00 5.9110346236604165e+00
-1.0000000000000001e-01 1.0000000000000001e-01
ITEM: ATOMS id type xs ys zs
43 2 0.894574 0.894479 0.5
45 2 0.075904 0.963908 0.5
48 2 0.179358 0.160975 0.5
80 4 0.246621 0.958052 0.5
1 1 0.818798 0.954752 0.5
57 3 0.864042 0.0460941 0.5
66 3 0.0835238 0.0298743 0.5
74 3 0.207232 0.0619612 0.5
16 1 0.323438 0.0587484 0.5
61 3 0.472404 0.183603 0.5
5 1 0.55794 0.261298 0.5
25 1 0.524782 0.141666 0.5
21 1 0.758949 0.0819861 0.5
29 2 0.986739 0.0568661 0.5
32 2 0.997187 0.185189 0.5
8 1 0.0808507 0.171777 0.5
6 1 0.656849 0.10002 0.5
54 3 0.807608 0.100528 0.5
23 1 0.886894 0.188194 0.5
9 1 0.0780735 0.323265 0.5
10 1 0.199134 0.245377 0.5
67 3 0.339684 0.191375 0.5
47 2 0.39995 0.303531 0.5
76 4 0.446692 0.268721 0.5
40 2 0.49236 0.327248 0.5
91 4 0.598515 0.21728 0.5
38 2 0.668224 0.279114 0.5
79 4 0.763174 0.198141 0.5
88 4 0.979075 0.260239 0.5
26 2 0.0832877 0.419393 0.5
56 3 0.282607 0.272713 0.5
97 4 0.249294 0.358831 0.5
94 4 0.315402 0.326436 0.5
36 2 0.620488 0.36507 0.5
78 4 0.817583 0.314643 0.5
68 3 0.833442 0.252517 0.5
35 2 0.950558 0.324107 0.5
31 2 0.174388 0.34764 0.5
19 1 0.278369 0.440007 0.5
13 1 0.421285 0.442888 0.5
59 3 0.498318 0.380481 0.5
72 3 0.524879 0.463884 0.5
3 1 0.645303 0.520084 0.5
92 4 0.714601 0.380106 0.5
85 4 0.81222 0.414858 0.5
49 2 0.96898 0.457164 0.5
50 2 0.888623 0.476176 0.5
51 3 0.963009 0.547161 0.5
77 4 0.980888 0.589541 0.5
82 4 0.987084 0.338686 0.5
17 1 0.0585697 0.528849 0.5
98 4 0.213973 0.481361 0.5
87 4 0.382525 0.565958 0.5
4 1 0.463566 0.542751 0.5
60 3 0.558865 0.532519 0.5
53 3 0.773679 0.510516 0.5
44 2 0.140858 0.57385 0.5
7 1 0.298185 0.559744 0.5
39 2 0.294251 0.68646 0.5
100 4 0.686569 0.583374 0.5
70 3 0.850167 0.688611 0.5
90 4 0.794534 0.598064 0.5
41 2 0.850138 0.595459 0.5
11 1 0.0852551 0.614691 0.5
46 2 0.220791 0.65249 0.5
28 2 0.367518 0.633714 0.5
33 2 0.511102 0.60606 0.5
22 1 0.540562 0.711201 0.5
52 3 0.627439 0.413007 0.5
71 3 0.628121 0.711483 0.5
27 2 0.708322 0.611669 0.5
95 4 0.969888 0.779613 0.5
20 1 0.016711 0.691147 0.5
37 2 0.207611 0.770598 0.5
93 4 0.318404 0.817372 0.5
64 3 0.375987 0.789272 0.5
58 3 0.490979 0.790294 0.5
18 1 0.798598 0.769374 0.5
84 4 0.99512 0.870989 0.5
99 4 0.923039 0.617334 0.5
83 4 0.942578 0.659687 0.5
2 1 0.0835771 0.860423 0.5
89 4 0.269115 0.882109 0.5
34 2 0.378247 0.858025 0.5
73 3 0.628829 0.788326 0.5
81 4 0.407863 0.683415 0.5
65 3 0.70836 0.790191 0.5
75 3 0.816796 0.840415 0.5
12 1 0.903488 0.816555 0.5
86 4 0.00775495 0.911756 0.5
55 3 0.168819 0.952441 0.5
69 3 0.517846 0.919691 0.5
30 2 0.601803 0.887359 0.5
42 2 0.689596 0.891954 0.5
62 3 0.861719 0.922127 0.5
24 1 0.322075 0.926587 0.5
96 4 0.388359 0.980596 0.5
63 3 0.406127 0.049056 0.5
14 1 0.613694 0.973978 0.5
15 1 0.726448 0.972638 0.5
ITEM: TIMESTEP
450
ITEM: NUMBER OF ATOMS
100
ITEM: BOX BOUNDS pp pp pp
-5.8708146262140248e+00 5.8708146262140248e+00
-5.8708146262140248e+00 5.8708146262140248e+00
-1.0000000000000001e-01 1.0000000000000001e-01
ITEM: ATOMS id type xs ys zs
43 2 0.894103 0.882654 0.5
45 2 0.0696664 0.946565 0.5
48 2 0.193207 0.169515 0.5
80 4 0.263046 0.959966 0.5
1 1 0.819066 0.955589 0.5
57 3 0.866852 0.0496681 0.5
66 3 0.0879525 0.029256 0.5
74 3 0.207798 0.0493907 0.5
16 1 0.311555 0.0596113 0.5
61 3 0.468901 0.180891 0.5
5 1 0.557425 0.269539 0.5
25 1 0.521688 0.153051 0.5
21 1 0.756641 0.0847195 0.5
29 2 0.98751 0.0549413 0.5
32 2 0.0131141 0.177966 0.5
8 1 0.0675729 0.169955 0.5
6 1 0.644214 0.0859432 0.5
54 3 0.816378 0.0898778 0.5
23 1 0.88322 0.174486 0.5
9 1 0.100258 0.312193 0.5
10 1 0.204462 0.245961 0.5
67 3 0.349471 0.181239 0.5
47 2 0.386061 0.310326 0.5
76 4 0.443775 0.269285 0.5
40 2 0.476662 0.325528 0.5
91 4 0.602645 0.201019 0.5
38 2 0.675381 0.284007 0.5
79 4 0.762881 0.191655 0.5
88 4 0.976876 0.255306 0.5
26 2 0.0917507 0.425544 0.5
56 3 0.289771 0.25179 0.5
97 4 0.245983 0.343871 0.5
94 4 0.316266 0.329519 0.5
36 2 0.61341 0.361619 0.5
78 4 0.817405 0.319696 0.5
68 3 0.821544 0.253235 0.5
35 2 0.922016 0.318376 0.5
31 2 0.175743 0.333605 0.5
19 1 0.288982 0.443226 0.5
13 1 0.429753 0.436806 0.5
59 3 0.498095 0.399903 0.5
72 3 0.503773 0.462787 0.5
3 1 0.640894 0.51375 0.5
92 4 0.714466 0.378921 0.5
85 4 0.813409 0.422904 0.5
49 2 0.968064 0.449623 0.5
50 2 0.889096 0.471482 0.5
51 3 0.963213 0.533305 0.5
77 4 0.981147 0.60367 0.5
82 4 0.988866 0.335671 0.5
17 1 0.0553977 0.541211 0.5
98 4 0.21323 0.482115 0.5
87 4 0.381351 0.563375 0.5
4 1 0.459523 0.530294 0.5
60 3 0.555233 0.544323 0.5
53 3 0.761821 0.512513 0.5
44 2 0.151976 0.558383 0.5
7 1 0.301561 0.570647 0.5
39 2 0.287454 0.703593 0.5
100 4 0.681286 0.58878 0.5
70 3 0.851276 0.701475 0.5
90 4 0.802746 0.598182 0.5
41 2 0.828727 0.592211 0.5
11 1 0.0817147 0.628436 0.5
46 2 0.222527 0.661887 0.5
28 2 0.37797 0.627056 0.5
33 2 0.523316 0.618859 0.5
22 1 0.540444 0.718584 0.5
52 3 0.62976 0.383887 0.5
71 3 0.617683 0.70686 0.5
27 2 0.705511 0.625003 0.5
95 4 0.96533 0.771272 0.5
20 1 0.0178383 0.695672 0.5
37 2 0.214339 0.773114 0.5
93 4 0.325132 0.822963 0.5
64 3 0.398068 0.798299 0.5
58 3 0.466073 0.805354 0.5
18 1 0.808433 0.770214 0.5
84 4 0.989608 0.892407 0.5
99 4 0.929047 0.608378 0.5
83 4 0.932124 0.659347 0.5
2 1 0.101272 0.867535 0.5
89 4 0.267996 0.886438 0.5
34 2 0.38294 0.84833 0.5
73 3 0.636623 0.781957 0.5
81 4 0.408574 0.675864 0.5
65 3 0.717435 0.795224 0.5
75 3 0.824593 0.852381 0.5
12 1 0.912992 0.805374 0.5
86 4 0.00410916 0.918018 0.5
55 3 0.170422 0.95311 0.5
69 3 0.500021 0.923024 0.5
30 2 0.59784 0.892401 0.5
42 2 0.679962 0.889225 0.5
62 3 0.866927 0.925194 0.5
24 1 0.323731 0.927694 0.5
96 4 0.388614 0.983736 0.5
63 3 0.409157 0.0687546 0.5
14 1 0.623426 0.972988 0.5
15 1 0.718438 0.980453 0.5
ITEM: TIMESTEP
500
ITEM: NUMBER OF ATOMS
100
ITEM: BOX BOUNDS pp pp pp
-5.8066396661492474e+00 5.8066396661492474e+00
-5.8066396661492474e+00 5.8066396661492474e+00
-1.0000000000000001e-01 1.0000000000000001e-01
ITEM: ATOMS id type xs ys zs
43 2 0.904124 0.869846 0.5
45 2 0.0638917 0.933645 0.5
48 2 0.206682 0.169554 0.5
80 4 0.273348 0.966574 0.5
1 1 0.812071 0.963752 0.5
57 3 0.87634 0.0510483 0.5
66 3 0.0944367 0.0327256 0.5
74 3 0.205976 0.0368927 0.5
16 1 0.298452 0.0619965 0.5
61 3 0.456822 0.182358 0.5
5 1 0.55566 0.277842 0.5
25 1 0.524221 0.156055 0.5
21 1 0.749364 0.0898632 0.5
29 2 0.987111 0.0533245 0.5