LAMMPS data file.

    288 atoms
    743 bonds
   2824 angles
      0 dihedrals
      0 impropers
      3 atom types
    743 bond types
   2824 angle types
      0 dihedral types
      0 improper types
  -9.191720   9.191720 xlo xhi
  -9.191720   9.191720 ylo yhi
  -0.100000   0.100000 zlo zhi

Masses # ['atom_id', 'mass']

1 100000000.0
2 100000000.0
3 100000000.0

Atoms # ['atomID', 'moleculeID', 'atomType', 'charge', 'x', 'y', 'z']

    217      1      1   0.000000  -8.205808  -9.025102   0.000000
    156      1      1   0.000000  -7.619636  -8.330874   0.000000
      9      1      1   0.000000  -5.387429  -8.708383   0.000000
    161      1      1   0.000000  -4.496154  -7.931749   0.000000
    256      1      1   0.000000  -4.178148  -8.646910   0.000000
    143      1      1   0.000000  -3.418173  -8.202141   0.000000
     44      1      2   0.000000  -8.818023  -7.958266   0.000000
     50      1      1   0.000000  -7.575930  -7.011873   0.000000
     12      1      2   0.000000  -6.452310  -7.789813   0.000000
    222      1      1   0.000000  -5.309743  -7.423548   0.000000
    176      1      1   0.000000  -8.756483  -6.524499   0.000000
    258      1      1   0.000000  -6.870098  -6.206204   0.000000
    137      1      1   0.000000  -6.050358  -6.586022   0.000000
    299      1      1   0.000000  -5.135800  -6.708955   0.000000
    179      1      1   0.000000  -5.219382  -5.952278   0.000000
     53      1      1   0.000000  -4.081375  -6.907666   0.000000
    229      1      1   0.000000  -3.394186  -6.261306   0.000000
     91      1      1   0.000000  -9.150925  -5.428154   0.000000
     32      1      1   0.000000  -7.825570  -5.529256   0.000000
     68      1      1   0.000000  -6.315380  -5.243661   0.000000
    215      1      1   0.000000  -4.410031  -5.698473   0.000000
    166      1      1   0.000000  -5.147598  -5.184481   0.000000
    139      1      1   0.000000  -4.144115  -4.614927   0.000000
    203      1      1   0.000000  -3.596926  -5.456796   0.000000
    126      1      1   0.000000  -8.433563  -4.279468   0.000000
    219      1      1   0.000000  -7.221541  -4.453151   0.000000
    174      1      1   0.000000  -6.431525  -4.042441   0.000000
     78      1      1   0.000000  -5.289232  -4.156711   0.000000
    285      1      1   0.000000  -4.497408  -3.792655   0.000000
    193      1      1   0.000000  -3.577361  -3.738324   0.000000
    181      1      1   0.000000  -8.599107  -3.122355   0.000000
     59      1      1   0.000000  -7.442801  -3.264837   0.000000
    286      1      1   0.000000  -6.826130  -2.326125   0.000000
     11      1      1   0.000000  -5.967526  -2.992179   0.000000
     28      1      1   0.000000  -4.498608  -2.793320   0.000000
    218      1      1   0.000000  -3.213021  -2.982061   0.000000
     36      1      1   0.000000  -3.673555  -0.303378   0.000000
     89      1      1   0.000000  -8.092836  -2.151919   0.000000
     85      1      1   0.000000  -7.047217  -1.422735   0.000000
    169      1      1   0.000000  -6.027051  -1.857418   0.000000
     22      1      1   0.000000  -4.843957  -1.310261   0.000000
     27      1      1   0.000000  -3.464775  -1.818712   0.000000
     43      1      1   0.000000  -8.263945  -0.875126   0.000000
     86      1      1   0.000000  -7.172498  -0.142526   0.000000
    124      1      1   0.000000  -6.092321  -0.759435   0.000000
    147      1      1   0.000000  -8.240186   0.474990   0.000000
    252      1      1   0.000000  -7.347950   0.814877   0.000000
     57      1      1   0.000000  -6.317815   1.099915   0.000000
    255      1      1   0.000000  -6.232095   0.068942   0.000000
     71      1      1   0.000000  -5.130376   0.212713   0.000000
    300      1      1   0.000000  -4.235295   0.756961   0.000000
    112      1      1   0.000000  -3.439921   1.013807   0.000000
     41      1      1   0.000000  -8.933773   1.674036   0.000000
     93      1      1   0.000000  -7.582024   1.648979   0.000000
     88      1      1   0.000000  -5.397798   1.878327   0.000000
    157      1      1   0.000000  -4.353218   1.489157   0.000000
    115      1      1   0.000000  -3.581113   2.248989   0.000000
     25      1      1   0.000000  -7.962132   2.903923   0.000000
    131      1      1   0.000000  -6.632675   2.495319   0.000000
     35      1      1   0.000000  -5.549142   3.350129   0.000000
    206      1      1   0.000000  -4.611123   2.541923   0.000000
    103      1      1   0.000000  -8.720905   4.008983   0.000000
    128      1      1   0.000000  -6.826107   3.699701   0.000000
    226      1      1   0.000000  -7.741587   3.985785   0.000000
    171      1      1   0.000000  -7.032549   4.717005   0.000000
    191      1      1   0.000000  -6.087926   4.370683   0.000000
    173      1      1   0.000000  -4.803697   4.404352   0.000000
      6      1      1   0.000000  -3.987764   3.517042   0.000000
     77      1      1   0.000000  -8.104004   4.936642   0.000000
    267      1      1   0.000000  -8.735274   5.798344   0.000000
    158      1      1   0.000000  -7.207838   5.595119   0.000000
    134      1      1   0.000000  -6.148046   5.411822   0.000000
    246      1      1   0.000000  -5.428484   4.826466   0.000000
    151      1      1   0.000000  -5.064666   5.573632   0.000000
    240      1      1   0.000000  -4.276079   5.721947   0.000000
     80      1      1   0.000000  -3.866903   4.927340   0.000000
    209      1      1   0.000000  -8.038452   6.028958   0.000000
    182      1      1   0.000000  -8.900723   6.451993   0.000000
    295      1      1   0.000000  -7.307677   6.372455   0.000000
    214      1      1   0.000000  -6.813250   7.005530   0.000000
    287      1      1   0.000000  -6.678493   6.173393   0.000000
     47      1      1   0.000000  -5.704627   6.643712   0.000000
    213      1      1   0.000000  -4.556466   6.438331   0.000000
     10      1      1   0.000000  -3.293904   6.193099   0.000000
    130      1      1   0.000000  -7.997862   7.059508   0.000000
    244      1      1   0.000000  -8.656326   7.758371   0.000000
    284      1      1   0.000000  -8.925007   7.193071   0.000000
    239      1      1   0.000000  -7.283792   7.604583   0.000000
    111      1      1   0.000000  -6.211243   7.906442   0.000000
    248      1      1   0.000000  -5.295042   7.616961   0.000000
    271      1      1   0.000000  -4.797140   7.169529   0.000000
    242      1      1   0.000000  -4.788627   7.961990   0.000000
     45      1      1   0.000000  -3.797226   7.497392   0.000000
    167      1      1   0.000000  -8.883589   8.688464   0.000000
    146      1      1   0.000000  -7.906695   8.307795   0.000000
    292      1      1   0.000000  -7.060814   8.148615   0.000000
     75      1      1   0.000000  -6.818408   9.136956   0.000000
    149      1      1   0.000000  -4.339788   8.751634   0.000000
    199      1      1   0.000000  -5.340375   8.449406   0.000000
    276      1      1   0.000000  -2.703145  -8.649875   0.000000
    289      1      1   0.000000  -2.421938  -8.063384   0.000000
     39      1      1   0.000000  -1.629422  -8.865523   0.000000
    243      1      1   0.000000  -0.595530  -8.930670   0.000000
    198      1      1   0.000000   0.126469  -9.023842   0.000000
    152      1      1   0.000000   0.740965  -8.242018   0.000000
     24      1      1   0.000000   1.306931  -9.163854   0.000000
    183      1      1   0.000000   2.554954  -8.773516   0.000000
     64      1      1   0.000000  -2.645064  -7.010840   0.000000
    223      1      1   0.000000  -1.710187  -7.683787   0.000000
     72      1      1   0.000000  -0.459937  -7.888941   0.000000
    117      1      1   0.000000   0.745983  -7.133278   0.000000
     18      1      1   0.000000   1.935768  -7.738375   0.000000
    194      1      1   0.000000  -2.699976  -5.783909   0.000000
     98      1      1   0.000000  -1.340372  -6.739944   0.000000
    200      1      1   0.000000  -0.254638  -6.594914   0.000000
    148      1      1   0.000000   1.845508  -6.426027   0.000000
    283      1      1   0.000000   2.764619  -6.328725   0.000000
    282      1      1   0.000000   2.640727  -6.957333   0.000000
    269      1      1   0.000000  -2.029706  -5.241961   0.000000
     99      1      1   0.000000  -2.838869  -4.674017   0.000000
      2      1      1   0.000000  -0.915757  -5.423447   0.000000
     69      1      1   0.000000   0.572256  -5.770906   0.000000
    168      1      1   0.000000  -0.001691  -4.653142   0.000000
    165      1      1   0.000000   1.719310  -5.332421   0.000000
    212      1      1   0.000000   2.548654  -5.536702   0.000000
    114      1      1   0.000000  -2.455956  -3.608001   0.000000
    177      1      1   0.000000  -1.771295  -4.464632   0.000000
    281      1      1   0.000000  -0.790642  -4.342564   0.000000
     84      1      1   0.000000  -0.166937  -3.595696   0.000000
     70      1      1   0.000000   1.085398  -4.224405   0.000000
    231      1      1   0.000000   2.044935  -4.639440   0.000000
    192      1      1   0.000000   2.647240  -0.254605   0.000000
    104      1      1   0.000000  -2.167120  -2.399522   0.000000
     92      1      1   0.000000  -1.337592  -3.346367   0.000000
    121      1      1   0.000000   0.878125  -2.872277   0.000000
     31      1      1   0.000000   2.200301  -3.284549   0.000000
    291      1      1   0.000000  -1.470301  -1.801964   0.000000
    261      1      1   0.000000  -1.200581  -1.226651   0.000000
     42      1      1   0.000000  -0.521073  -2.217525   0.000000
    211      1      1   0.000000   0.680700  -1.837168   0.000000
    125      1      1   0.000000   1.733547  -2.019428   0.000000
    107      1      1   0.000000   2.736871  -1.301627   0.000000
    273      1      1   0.000000   2.649517  -2.243518   0.000000
     38      1      1   0.000000  -2.235283  -0.985569   0.000000
     14      1      1   0.000000  -0.158613  -0.861132   0.000000
     19      1      1   0.000000   1.414056  -0.721168   0.000000
     87      1      1   0.000000  -2.334755   0.355815   0.000000
    150      1      1   0.000000  -1.247552   0.897364   0.000000
    135      1      1   0.000000   0.559829   0.272821   0.000000
    180      1      1   0.000000  -0.143322   0.855965   0.000000
     62      1      1   0.000000   1.842068   0.646282   0.000000
     26      1      1   0.000000  -2.306898   1.726535   0.000000
    225      1      1   0.000000  -0.549662   1.691987   0.000000
     29      1      1   0.000000   0.722480   1.645379   0.000000
     37      1      1   0.000000   2.208196   2.119834   0.000000
    178      1      1   0.000000  -2.882015   2.990737   0.000000
     23      1      1   0.000000  -1.602990   3.032633   0.000000
     82      1      1   0.000000  -0.212212   2.770958   0.000000
     63      1      1   0.000000   1.030983   3.086677   0.000000
     17      1      1   0.000000  -2.664447   4.209981   0.000000
     94      1      1   0.000000  -1.276994   4.325957   0.000000
    266      1      1   0.000000  -0.706476   3.634316   0.000000
     16      1      1   0.000000   0.147463   4.243694   0.000000
    259      1      1   0.000000   1.147967   4.095051   0.000000
     34      1      1   0.000000   2.347985   3.764032   0.000000
    264      1      1   0.000000  -2.875844   5.205051   0.000000
     13      1      1   0.000000  -1.947444   5.598676   0.000000
    160      1      1   0.000000  -0.712756   5.171531   0.000000
     54      1      1   0.000000   0.412092   5.800378   0.000000
    145      1      1   0.000000   1.376233   4.884315   0.000000
    106      1      1   0.000000   2.501491   5.082025   0.000000
    190      1      1   0.000000  -0.790080   6.137339   0.000000
    129      1      1   0.000000   1.221539   6.817875   0.000000
    163      1      1   0.000000   1.660401   5.834820   0.000000
    234      1      1   0.000000   2.727320   5.968083   0.000000
    186      1      1   0.000000   2.265652   6.516436   0.000000
    119      1      1   0.000000  -2.518262   7.338807   0.000000
     96      1      1   0.000000  -1.460665   6.909963   0.000000
    275      1      1   0.000000  -0.950177   7.604970   0.000000
     61      1      1   0.000000  -0.055117   7.152621   0.000000
    109      1      1   0.000000   1.099521   7.879434   0.000000
    236      1      1   0.000000   1.964112   7.377367   0.000000
     55      1      1   0.000000   2.456536   8.346455   0.000000
     15      1      1   0.000000  -2.886193   8.678411   0.000000
    140      1      1   0.000000  -1.636847   8.159386   0.000000
    230      1      1   0.000000   0.411351   8.599622   0.000000
    108      1      1   0.000000  -0.471958   8.503070   0.000000
    154      1      1   0.000000   2.868003   7.240941   0.000000
    207      1      1   0.000000   4.220178  -8.281905   0.000000
    185      1      1   0.000000   3.135868  -8.175007   0.000000
      4      1      1   0.000000   8.678070  -0.456538   0.000000
    159      1      1   0.000000   5.431986  -8.496981   0.000000
     48      1      1   0.000000   6.705419  -8.512175   0.000000
     74      1      1   0.000000   3.103146  -4.461650   0.000000
    204      1      1   0.000000   8.924055  -8.985507   0.000000
     66      1      1   0.000000   3.682994  -7.268891   0.000000
     97      1      1   0.000000   4.993430  -7.475114   0.000000
    294      1      1   0.000000   5.927033  -7.782484   0.000000
    202      1      1   0.000000   6.590629  -7.326184   0.000000
    279      1      1   0.000000   5.920911  -7.089804   0.000000
    113      1      1   0.000000   7.546866  -7.163963   0.000000
     83      1      1   0.000000   8.236813  -8.110997   0.000000
     81      1      1   0.000000   8.629224  -6.966882   0.000000
     58      1      1   0.000000   3.764771  -5.860281   0.000000
    250      1      1   0.000000   4.619196  -6.604659   0.000000
    118      1      1   0.000000   5.092223  -5.811471   0.000000
     65      1      1   0.000000   6.438963  -6.128110   0.000000
    290      1      1   0.000000   8.890459  -6.187423   0.000000
     30      1      1   0.000000   4.585596  -4.607194   0.000000
    187      1      1   0.000000   5.726560  -4.915133   0.000000
     40      1      1   0.000000   7.851652  -5.787747   0.000000
     52      1      1   0.000000   6.850073  -4.643593   0.000000
    280      1      1   0.000000   8.545491  -5.019356   0.000000
    278      1      1   0.000000   4.025441  -3.672975   0.000000
    238      1      1   0.000000   4.690243  -3.525601   0.000000
      8      1      1   0.000000   5.733876  -3.684366   0.000000
    251      1      1   0.000000   6.780586  -3.539905   0.000000
    268      1      1   0.000000   9.034091  -4.521577   0.000000
    132      1      1   0.000000   8.038947  -4.312651   0.000000
    100      1      1   0.000000   8.954712  -3.582455   0.000000
    155      1      1   0.000000   3.288648  -2.680533   0.000000
    228      1      1   0.000000   3.963071  -3.082605   0.000000
    116      1      1   0.000000   4.765730  -2.593564   0.000000
    263      1      1   0.000000   6.544903  -2.925153   0.000000
    205      1      1   0.000000   5.766047  -2.441866   0.000000
      5      1      1   0.000000   7.720836  -2.982403   0.000000
    172      1      1   0.000000   8.980520  -2.536165   0.000000
     76      1      1   0.000000   3.881987  -1.796594   0.000000
     49      1      1   0.000000   5.184142  -1.257295   0.000000
     73      1      1   0.000000   6.783015  -1.872933   0.000000
    133      1      1   0.000000   8.141107  -1.706456   0.000000
     46      1      1   0.000000   3.890437  -0.425339   0.000000
      3      1      3   0.000000   6.355984  -0.356909   0.000000
    175      1      1   0.000000   7.471862  -0.795117   0.000000
    216      1      1   0.000000   9.143839  -1.619483   0.000000
    105      1      1   0.000000   7.845615  -9.175481   0.000000
     79      1      1   0.000000   3.173355   0.762783   0.000000
     95      1      3   0.000000   4.393146   0.872364   0.000000
     33      1      1   0.000000   5.919438   1.163243   0.000000
    122      1      1   0.000000   7.527766   0.286685   0.000000
     90      1      1   0.000000   8.284341   1.072282   0.000000
    296      1      1   0.000000   9.108780   0.591182   0.000000
    101      1      1   0.000000   3.554494   1.846532   0.000000
     20      1      1   0.000000   4.855507   2.189358   0.000000
    208      1      1   0.000000   7.158857   1.239251   0.000000
    127      1      1   0.000000   7.594571   2.219905   0.000000
    272      1      1   0.000000   8.482452   1.961902   0.000000
    288      1      1   0.000000   3.895228   2.796848   0.000000
    184      1      1   0.000000   3.136200   2.847806   0.000000
    260      1      1   0.000000   4.572157   3.244202   0.000000
    201      1      1   0.000000   5.420593   3.237223   0.000000
    224      1      1   0.000000   6.049766   2.540168   0.000000
     56      1      1   0.000000   7.560342   3.588794   0.000000
      7      1      1   0.000000   8.797759   2.958005   0.000000
    110      1      1   0.000000   3.758871   3.726078   0.000000
    297      1      1   0.000000   3.176847   4.434157   0.000000
    221      1      1   0.000000   4.859135   3.950734   0.000000
    188      1      1   0.000000   6.295878   3.452798   0.000000
    245      1      1   0.000000   5.735691   3.966098   0.000000
    274      1      1   0.000000   6.392479   4.223332   0.000000
    237      1      1   0.000000   7.003824   4.355530   0.000000
    153      1      1   0.000000   8.649006   4.219014   0.000000
    232      1      1   0.000000   3.324962   5.021820   0.000000
    144      1      1   0.000000   4.243153   4.869211   0.000000
    164      1      1   0.000000   3.580245   5.764264   0.000000
     51      1      1   0.000000   5.598825   5.028935   0.000000
    233      1      1   0.000000   6.696161   4.904807   0.000000
      1      1      1   0.000000   7.744511   5.091344   0.000000
    102      1      1   0.000000   9.057849   5.128892   0.000000
    196      1      1   0.000000   3.809455   6.825735   0.000000
    262      1      1   0.000000   3.096412   6.497857   0.000000
    120      1      1   0.000000   4.587695   5.950680   0.000000
    235      1      1   0.000000   5.316823   6.526411   0.000000
    141      1      1   0.000000   6.117472   6.212066   0.000000
     67      1      1   0.000000   7.421885   6.421625   0.000000
    170      1      1   0.000000   8.563460   6.027390   0.000000
     21      1      1   0.000000   3.907792   7.996615   0.000000
    189      1      1   0.000000   4.734153   7.036747   0.000000
    247      1      1   0.000000   5.562860   7.105674   0.000000
    123      1      1   0.000000   6.468172   7.448171   0.000000
     60      1      1   0.000000   7.797690   7.880154   0.000000
    210      1      1   0.000000   8.687162   6.980693   0.000000
    220      1      1   0.000000   8.987591   7.849793   0.000000
    257      1      1   0.000000   8.699166   8.585985   0.000000
    138      1      1   0.000000   5.354820   8.016402   0.000000
    162      1      1   0.000000   5.812128   9.035159   0.000000
    136      1      1   0.000000   4.733230   9.119386   0.000000
    142      1      1   0.000000   3.534532   9.185188   0.000000

Bond Coeffs # ['bondID', 'bondCoeff', 'd']

      1   0.807193   1.113042
      2   0.808600   1.112072
      3   0.760592   1.146632
      4   0.798915   1.118793
      5   1.628081   0.783722
      6   1.082148   0.961295
      7   1.658227   0.776565
      8   0.428282   1.528041
      9   0.470292   1.458196
     10   0.716012   1.181789
     11   0.912918   1.046608
     12   2.436072   0.640700
     13   1.084047   0.960453
     14   1.156812   0.929755
     15   0.526400   1.378294
     16   0.801927   1.116690
     17   0.602144   1.288694
     18   1.158623   0.929028
     19   0.877213   1.067695
     20   0.877213   1.067695
     21   0.509264   1.401291
     22   1.083161   0.960845
     23   0.397956   1.585193
     24   0.617343   1.272731
     25   0.617343   1.272731
     26   0.444291   1.500260
     27   0.881962   1.064817
     28   0.718838   1.179463
     29   0.672065   1.219816
     30   0.488556   1.430680
     31   1.010425   0.994828
     32   0.515869   1.392292
     33   1.391011   0.847881
     34   0.774547   1.136256
     35   0.854629   1.081711
     36   1.261341   0.890397
     37   0.416409   1.549672
     38   0.685691   1.207636
     39   0.559507   1.336894
     40   0.675535   1.216680
     41   0.804764   1.114720
     42   0.675535   1.216680
     43   0.735317   1.166172
     44   0.868584   1.072986
     45   0.684978   1.208263
     46   1.466859   0.825669
     47   0.660136   1.230788
     48   0.559123   1.337354
     49   0.559123   1.337354
     50   0.605594   1.285018
     51   1.666815   0.774562
     52   0.757703   1.148816
     53   0.991908   1.004071
     54   0.638232   1.251730
     55   0.894073   1.057580
     56   1.084617   0.960200
     57   0.739758   1.162666
     58   0.762859   1.144927
     59   0.631965   1.257922
     60   0.487720   1.431906
     61   0.868799   1.072853
     62   0.836904   1.093106
     63   0.423327   1.536958
     64   1.533690   0.807479
     65   0.518008   1.389415
     66   0.786467   1.127612
     67   0.892542   1.058487
     68   0.919469   1.042873
     69   0.758526   1.148193
     70   0.405554   1.570274
     71   0.844428   1.088225
     72   0.497244   1.418127
     73   1.065231   0.968898
     74   0.833437   1.095377
     75   1.097506   0.954545
     76   1.668138   0.774255
     77   0.432480   1.520608
     78   0.437781   1.511372
     79   0.437781   1.511372
     80   1.153432   0.931117
     81   0.574705   1.319099
     82   0.457895   1.477805
     83   1.437457   0.834070
     84   0.826564   1.099921
     85   0.577900   1.315448
     86   0.534151   1.368258
     87   0.862752   1.076607
     88   0.962530   1.019279
     89   0.834218   1.094864
     90   1.349798   0.860727
     91   0.565999   1.329205
     92   1.134114   0.939013
     93   1.182602   0.919561
     94   0.547090   1.351981
     95   0.460795   1.473146
     96   1.599572   0.790675
     97   1.405024   0.843642
     98   0.618217   1.271832
     99   2.476881   0.635400
    100   0.736426   1.165294
    101   0.758787   1.147995
    102   0.782441   1.130510
    103   0.800026   1.118016
    104   1.190294   0.916585
    105   0.604085   1.286622
    106   0.666712   1.224703
    107   1.438809   0.833678
    108   1.007811   0.996117
    109   0.461678   1.471737
    110   1.251838   0.893770
    111   0.540205   1.360569
    112   0.431270   1.522738
    113   1.818887   0.741476
    114   0.499025   1.415595
    115   0.549937   1.348477
    116   0.599853   1.291152
    117   0.612793   1.277448
    118   0.715547   1.182173
    119   1.150458   0.932319
    120   1.150458   0.932319
    121   0.763474   1.144466
    122   0.592292   1.299367
    123   1.211313   0.908598
    124   0.763474   1.144466
    125   0.572931   1.321140
    126   0.477491   1.447164
    127   0.605252   1.285381
    128   1.632432   0.782677
    129   0.637194   1.252750
    130   0.645443   1.244718
    131   0.687328   1.206196
    132   0.646995   1.243225
    133   0.844911   1.087914
    134   0.613629   1.276577
    135   0.842708   1.089335
    136   1.531450   0.808069
    137   1.531450   0.808069
    138   0.641248   1.248783
    139   0.688200   1.205432
    140   1.114086   0.947416
    141   1.332415   0.866324
    142   1.111155   0.948664
    143   0.477245   1.447535
    144   1.111155   0.948664
    145   0.983412   1.008398
    146   0.977418   1.011486
    147   0.814440   1.108078
    148   0.814440   1.108078
    149   1.407241   0.842977
    150   1.157657   0.929416
    151   0.917732   1.043860
    152   0.418642   1.545534
    153   0.826215   1.100154
    154   0.849242   1.085136
    155   0.777882   1.133817
    156   0.442385   1.503487
    157   0.917397   1.044050
    158   0.570503   1.323949
    159   0.522475   1.383462
    160   1.237329   0.898995
    161   0.970399   1.015137
    162   0.445637   1.497992
    163   1.518092   0.811617
    164   1.518092   0.811617
    165   0.578717   1.314519
    166   0.806083   1.113808
    167   0.631455   1.258429
    168   1.174359   0.922783
    169   0.846300   1.087021
    170   0.813452   1.108751
    171   0.774485   1.136301
    172   0.842180   1.089676
    173   0.833405   1.095398
    174   0.537108   1.364486
    175   0.842872   1.089229
    176   1.156079   0.930050
    177   0.842872   1.089229
    178   0.870812   1.071612
    179   0.501998   1.411397
    180   1.389096   0.848465
    181   0.533326   1.369316
    182   1.585929   0.794069
    183   0.616576   1.273523
    184   0.619008   1.271018
    185   0.895680   1.056631
    186   0.684442   1.208737
    187   0.648536   1.241747
    188   0.503305   1.409562
    189   0.409406   1.562871
    190   0.421442   1.540391
    191   0.777507   1.134091
    192   2.837461   0.593656
    193   0.516952   1.390833
    194   1.117583   0.945932
    195   0.482262   1.439986
    196   0.539842   1.361027
    197   0.915623   1.045061
    198   0.539842   1.361027
    199   0.482262   1.439986
    200   0.594809   1.296616
    201   0.532015   1.371002
    202   0.522393   1.383571
    203   0.509330   1.401201
    204   0.644318   1.245805
    205   0.546373   1.352868
    206   0.933398   1.035062
    207   0.933398   1.035062
    208   1.316618   0.871505
    209   0.871611   1.071121
    210   0.455111   1.482318
    211   1.133709   0.939181
    212   0.410096   1.561555
    213   1.001330   0.999336
    214   0.790442   1.124773
    215   1.016041   0.992075
    216   1.322717   0.869494
    217   2.199590   0.674263
    218   0.550595   1.347671
    219   0.677424   1.214982
    220   0.677424   1.214982
    221   0.875882   1.068507
    222   0.844621   1.088100
    223   1.448210   0.830968
    224   0.613031   1.277200
    225   2.552621   0.625903
    226   0.552566   1.345265
    227   0.516329   1.391671
    228   0.582168   1.310617
    229   1.119238   0.945233
    230   0.448163   1.493765
    231   0.394631   1.591858
    232   0.813214   1.108913
    233   0.868735   1.072893
    234   0.643244   1.246844
    235   0.638353   1.251612
    236   0.705836   1.190277
    237   0.903078   1.052294
    238   0.781932   1.130877
    239   0.994281   1.002872
    240   0.846713   1.086756
    241   0.471855   1.455780
    242   1.447973   0.831036
    243   0.728385   1.171709
    244   1.758896   0.754015
    245   0.460296   1.473945
    246   0.929047   1.037483
    247   0.897362   1.055641
    248   1.452772   0.829662
    249   0.810240   1.110946
    250   0.454402   1.483475
    251   0.521344   1.384961
    252   0.772443   1.137802
    253   0.499115   1.415467
    254   0.862816   1.076567
    255   0.579285   1.313874
    256   0.958335   1.021507
    257   0.535415   1.366643
    258   1.054411   0.973856
    259   1.687554   0.769788
    260   0.533168   1.369518
    261   0.839507   1.091410
    262   1.004994   0.997512
    263   0.839507   1.091410
    264   0.634933   1.254977
    265   0.666810   1.224613
    266   0.567966   1.326902
    267   0.511136   1.398723
    268   0.500633   1.413319
    269   0.648811   1.241483
    270   1.627054   0.783969
    271   0.411107   1.559634
    272   0.436381   1.513795
    273   0.704348   1.191533
    274   0.640025   1.249976
    275   0.686616   1.206822
    276   1.705744   0.765673
    277   2.556115   0.625475
    278   1.723322   0.761758
    279   0.966322   1.017277
    280   0.782210   1.130676
    281   0.835106   1.094282
    282   0.864486   1.075526
    283   0.762267   1.145372
    284   0.766111   1.142495
    285   0.784847   1.128775
    286   0.667984   1.223537
    287   0.667984   1.223537
    288   1.886919   0.727987
    289   1.408780   0.842517
    290   1.408780   0.842517
    291   0.645438   1.244723
    292   0.931337   1.036207
    293   0.483251   1.438512
    294   1.856171   0.733991
    295   0.689540   1.204260
    296   0.987133   1.006496
    297   0.810073   1.111061
    298   0.512752   1.396518
    299   0.531205   1.372047
    300   0.610628   1.279710
    301   0.875813   1.068548
    302   0.512752   1.396518
    303   0.637116   1.252826
    304   0.819144   1.104892
    305   0.535476   1.366564
    306   0.631062   1.258821
    307   0.840641   1.090673
    308   0.732290   1.168580
    309   0.906137   1.050517
    310   0.473589   1.453113
    311   1.160948   0.928097
    312   1.244001   0.896581
    313   0.778731   1.133199
    314   1.124586   0.942982
    315   1.004895   0.997562
    316   0.552728   1.345068
    317   1.389919   0.848214
    318   0.461618   1.471834
    319   0.422686   1.538123
    320   0.693863   1.200503
    321   0.838147   1.092295
    322   0.838147   1.092295
    323   0.603560   1.287182
    324   0.518159   1.389212
    325   0.808705   1.112000
    326   1.622037   0.785181
    327   1.681619   0.771145
    328   1.154248   0.930787