LAMMPS data file via write_data, version 23 Jun 2022, timestep = 10000

200 atoms
4 atom types

-7.83370328337211 7.83370328337211 xlo xhi
-7.83370328337211 7.83370328337211 ylo yhi
-0.1 0.1 zlo zhi

Atoms # sphere

77 2 1.5 0.2962962962962963 -7.049637488558506 -7.5827728695376955 0 0 1 0
167 4 0.6 4.629629629629631 -6.6644283730654434 -6.655455840732219 0 0 0 0
18 1 1.8 0.1714677640603566 -5.603011750614959 -6.908580789580253 0 0 0 0
68 2 1.5 0.2962962962962963 -4.243002375674035 -7.2673204473899 0 0 0 0
118 3 1.1 0.7513148009015775 -3.1469808965512263 -6.989006050145777 0 0 0 0
190 4 0.6 4.629629629629631 -3.395120070517999 -7.66871462905763 0 0 0 0
32 1 1.8 0.1714677640603566 -1.9425944967912487 -6.89146301921959 0 0 0 0
70 2 1.5 0.2962962962962963 -0.42748682981977115 -7.1092028090109824 0 0 1 0
168 4 0.6 4.629629629629631 0.41871176982769853 -7.549792939708117 0 0 0 0
153 4 0.6 4.629629629629631 0.5496534767308141 -7.023654846251886 0 0 0 0
161 4 0.6 4.629629629629631 0.9500077282361161 -7.356236785966335 0 0 0 0
151 4 0.6 4.629629629629631 1.5088061050408719 -7.217443933081528 0 0 0 0
200 4 0.6 4.629629629629631 1.0963173675866855 -6.852620204576386 0 0 0 0
186 4 0.6 4.629629629629631 1.3128669242220958 -7.724774261414071 0 0 1 0
154 4 0.6 4.629629629629631 0.8021179287624118 7.795991097339101 0 0 0 0
182 4 0.6 4.629629629629631 1.966552912777484 -7.0087941080680825 0 0 0 0
121 3 1.1 0.7513148009015775 3.2973431602502323 -7.815965789818149 0 0 1 0
86 2 1.5 0.2962962962962963 4.3026391404116655 -7.214007250902351 0 0 1 0
61 2 1.5 0.2962962962962963 5.72964211047702 -7.580172528573888 0 0 0 0
155 4 0.6 4.629629629629631 6.634079686365725 -7.283628702933292 0 0 0 0
112 3 1.1 0.7513148009015775 7.43318982267812 -7.277447785925529 0 0 1 0
170 4 0.6 4.629629629629631 6.767993541837026 -7.7182648053237655 0 0 1 0
88 2 1.5 0.2962962962962963 -7.575965446991382 -6.355529928423044 0 1 0 0
72 2 1.5 0.2962962962962963 -6.456730526686675 -5.678615429179256 0 0 0 0
149 3 1.1 0.7513148009015775 -5.304133727914566 -5.6198508338656215 0 0 0 0
132 3 1.1 0.7513148009015775 -4.46408627755982 -6.083482630124696 0 0 0 0
164 4 0.6 4.629629629629631 -3.790985471355122 -6.486593103721446 0 0 0 0
13 1 1.8 0.1714677640603566 -3.1428994112735653 -5.6758444999341275 0 0 0 0
181 4 0.6 4.629629629629631 -1.0303979465270752 -6.398291312618653 0 0 0 0
9 1 1.8 0.1714677640603566 -1.5676389418300545 -5.416650513473516 0 0 0 0
135 3 1.1 0.7513148009015775 -0.4766289166503279 -5.922356642424271 0 0 0 0
78 2 1.5 0.2962962962962963 0.5437740500627939 -6.099130342352316 0 0 0 0
130 3 1.1 0.7513148009015775 1.649718156772357 -6.332441640257516 0 0 0 0
20 1 1.8 0.1714677640603566 2.956292557795418 -6.597034715556019 0 0 1 0
174 4 0.6 4.629629629629631 2.194952309227018 -5.802532047468659 0 0 0 0
98 2 1.5 0.2962962962962963 4.166682680327801 -5.785607313399405 0 0 0 0
82 2 1.5 0.2962962962962963 5.275813307295143 -6.401829992728428 0 0 0 0
48 1 1.8 0.1714677640603566 6.639127176661688 -6.240010893651745 0 0 0 0
178 4 0.6 4.629629629629631 -7.3524383872497205 -5.4021655846792624 0 1 0 0
31 1 1.8 0.1714677640603566 -7.187889393019239 -4.290778500584185 0 0 0 0
102 3 1.1 0.7513148009015775 -5.835697548185712 -4.752718842399441 0 0 0 0
25 1 1.8 0.1714677640603566 -4.457310352940079 -4.698772951694902 0 0 0 0
93 2 1.5 0.2962962962962963 -3.0449469086810828 -4.224175248301666 0 0 0 0
176 4 0.6 4.629629629629631 -2.374606007314994 -4.767256833935739 0 0 0 0
45 1 1.8 0.1714677640603566 -0.05105284790816533 -4.704204703160418 0 0 0 0
63 2 1.5 0.2962962962962963 1.4745278366575487 -5.154521400793249 0 0 0 0
69 2 1.5 0.2962962962962963 2.928663751609804 -5.140234193833161 0 0 0 0
44 1 1.8 0.1714677640603566 4.2741412396911365 -4.3374145492587495 0 0 0 0
74 2 1.5 0.2962962962962963 5.49792663971259 -5.155467221386671 0 0 0 0
188 4 0.6 4.629629629629631 6.409668500904543 -5.171997299878848 0 0 0 0
171 4 0.6 4.629629629629631 6.915383036271395 -5.231580251429431 0 0 0 0
139 3 1.1 0.7513148009015775 7.61784721738913 -5.276826694128487 0 0 0 0
163 4 0.6 4.629629629629631 -7.665171669644965 -3.245442806723572 0 0 0 0
56 2 1.5 0.2962962962962963 -5.921711983980625 -3.666675802451498 0 0 0 0
105 3 1.1 0.7513148009015775 -4.8990192573987965 -3.5541479938851284 0 0 0 0
21 1 1.8 0.1714677640603566 -3.8065894271771734 -3.0565667074128067 0 0 0 0
117 3 1.1 0.7513148009015775 -2.4811779964883707 -3.1819988115619955 0 0 0 0
4 1 1.8 0.1714677640603566 -1.5320719613166576 -3.943403601173258 0 0 0 0
8 1 1.8 0.1714677640603566 -0.3066833165014051 -2.9930693050131714 0 0 0 0
40 1 1.8 0.1714677640603566 1.088499934708901 -3.7218500953423908 0 0 0 0
148 3 1.1 0.7513148009015775 2.203748509395007 -4.251348817466443 0 0 0 0
146 3 1.1 0.7513148009015775 3.0697939689412266 -3.975950208643035 0 0 0 0
101 3 1.1 0.7513148009015775 3.587743494634898 -3.1970090934443327 0 0 0 0
113 3 1.1 0.7513148009015775 5.055152266128998 -3.1928288977853168 0 0 0 0
192 4 0.6 4.629629629629631 4.315964274614071 -3.231116228659041 0 0 0 0
147 3 1.1 0.7513148009015775 5.54196809146293 -4.028226789798543 0 0 0 0
103 3 1.1 0.7513148009015775 6.0347397954664395 -3.1864321721813855 0 0 0 0
33 1 1.8 0.1714677640603566 6.822188583963859 -4.182520506366984 0 0 0 0
172 4 0.6 4.629629629629631 7.6126729929524135 -3.528876364277254 0 -1 0 0
49 1 1.8 0.1714677640603566 -6.861749508646797 -2.5796219717324522 0 0 0 0
42 1 1.8 0.1714677640603566 -5.271824655196629 -2.304417398499493 0 0 0 0
85 2 1.5 0.2962962962962963 -2.6968267174658314 -2.1124153768856075 0 0 0 0
150 3 1.1 0.7513148009015775 -1.5885868641961043 -2.629919154344102 0 0 0 0
187 4 0.6 4.629629629629631 -1.795164523647185 -1.9175223982492122 0 0 0 0
179 4 0.6 4.629629629629631 -0.10928436115104212 -1.8922558649919532 0 0 0 0
198 4 0.6 4.629629629629631 0.3159887036191851 -2.0952498470688594 0 0 0 0
75 2 1.5 0.2962962962962963 1.1446572883937058 -2.329148695300497 0 0 0 0
59 2 1.5 0.2962962962962963 2.347107179855376 -3.026131191973457 0 0 0 0
95 2 1.5 0.2962962962962963 3.2890428541910524 -2.17421995052624 0 0 0 0
107 3 1.1 0.7513148009015775 4.3876951377246165 -2.4942465499854025 0 0 0 0
46 1 1.8 0.1714677640603566 5.6458045276610545 -1.9606109732432744 0 0 0 0
47 1 1.8 0.1714677640603566 7.158921670875683 -2.480821009510982 0 0 0 0
39 1 1.8 0.1714677640603566 -7.622830229004698 -1.1510113117149174 0 1 0 0
52 2 1.5 0.2962962962962963 -6.20333305104185 -1.1954828869878042 0 0 0 0
136 3 1.1 0.7513148009015775 -5.101617992850021 -1.0021597211707371 0 0 0 0
7 1 1.8 0.1714677640603566 -3.9167603574345784 -1.418084789037712 0 0 0 0
199 4 0.6 4.629629629629631 -3.1360104721322344 -0.8201830376198789 0 0 0 0
36 1 1.8 0.1714677640603566 -2.1312465139669134 -0.8298613172754763 0 0 0 0
80 2 1.5 0.2962962962962963 -0.9357885043682037 -1.5956223431514829 0 0 0 0
27 1 1.8 0.1714677640603566 0.4314335442530215 -0.9442753347829695 0 0 0 0
173 4 0.6 4.629629629629631 1.449974403982969 -1.4661803045213802 0 0 0 0
126 3 1.1 0.7513148009015775 2.169455246196284 -1.8103658186324765 0 0 0 0
94 2 1.5 0.2962962962962963 1.8409030791161065 -0.632693486574178 0 0 0 0
54 2 1.5 0.2962962962962963 3.0381430361543966 -0.9845731416660071 0 0 0 0
83 2 1.5 0.2962962962962963 4.279917722930547 -1.3290506512693314 0 0 0 0
58 2 1.5 0.2962962962962963 6.690957474033452 -0.802759335083616 0 0 0 0
109 3 1.1 0.7513148009015775 -6.755251781332097 -0.16351838531369722 0 0 0 0
90 2 1.5 0.2962962962962963 -5.5760704156659 0.03692153364642259 0 0 0 0
114 3 1.1 0.7513148009015775 -4.466938982550772 -0.229284310054366 0 0 0 0
53 2 1.5 0.2962962962962963 -3.3299265606601285 0.07655805747238809 0 0 0 0
55 2 1.5 0.2962962962962963 -0.8529226439460764 -0.2120410534905579 0 0 0 0
67 2 1.5 0.2962962962962963 0.07084024085007634 0.5844172216218588 0 0 0 0
127 3 1.1 0.7513148009015775 1.0726574379608476 0.23332438219161133 0 0 0 0
137 3 1.1 0.7513148009015775 2.7710122509786466 0.07378047628035755 0 0 0 0
111 3 1.1 0.7513148009015775 1.9261631597392928 0.5376719208867105 0 0 0 0
51 2 1.5 0.2962962962962963 3.9091133409047867 0.04698374060653343 0 0 0 0
11 1 1.8 0.1714677640603566 5.2897379269140075 -0.4332191831915244 0 0 0 0
14 1 1.8 0.1714677640603566 7.72623491573623 0.4470696546287982 0 -1 0 0
76 2 1.5 0.2962962962962963 -6.496832505494675 0.9955894028853951 0 0 0 0
81 2 1.5 0.2962962962962963 -5.177896260123855 1.2745383179421577 0 0 0 0
123 3 1.1 0.7513148009015775 -4.2676682551437715 0.7030577410495322 0 0 0 0
184 4 0.6 4.629629629629631 -3.5797051363883963 1.0755675020292408 0 0 0 0
124 3 1.1 0.7513148009015775 -4.056567307458689 1.6993707754488625 0 0 0 0
156 4 0.6 4.629629629629631 -3.0625374749971446 0.971351637463334 0 0 0 0
24 1 1.8 0.1714677640603566 -1.9630858621663059 0.7390595363129009 0 0 0 0
169 4 0.6 4.629629629629631 -0.8720049746142475 0.8919325552144581 0 0 0 0
71 2 1.5 0.2962962962962963 -0.3770182873395145 1.7548444612275578 0 0 0 0
22 1 1.8 0.1714677640603566 1.1747640722855248 1.6215713566652656 0 0 0 0
28 1 1.8 0.1714677640603566 2.888638869600408 1.3114477783077607 0 0 0 0
125 3 1.1 0.7513148009015775 4.128137026732061 1.1324497744961288 0 0 0 0
129 3 1.1 0.7513148009015775 4.929574067778029 0.7381750157133524 0 0 0 0
38 1 1.8 0.1714677640603566 6.2362382999979395 0.708403384479805 0 0 0 0
189 4 0.6 4.629629629629631 6.191265937839091 1.7122108468367916 0 0 0 0
134 3 1.1 0.7513148009015775 7.013333100744381 1.7221354578469779 0 0 0 0
6 1 1.8 0.1714677640603566 -7.475141248411563 2.0211970001095647 0 0 0 0
43 1 1.8 0.1714677640603566 -5.980713482811214 2.4553939175011 0 0 0 0
145 3 1.1 0.7513148009015775 -4.689106700017774 2.359487425595802 0 0 0 0
128 3 1.1 0.7513148009015775 -3.762656331895945 2.734835710675984 0 0 0 0
100 2 1.5 0.2962962962962963 -2.9547622524699015 1.8900360210249492 0 0 0 0
92 2 1.5 0.2962962962962963 -1.6237287573581431 2.060151396417508 0 0 0 0
159 4 0.6 4.629629629629631 -0.7216003603216743 2.621852179888487 0 0 0 0
193 4 0.6 4.629629629629631 -0.12624594955655688 2.692984192955347 0 0 0 0
185 4 0.6 4.629629629629631 0.34920632069375657 2.390047133758287 0 0 0 0
196 4 0.6 4.629629629629631 1.5484517689201631 2.59625696685435 0 0 0 0
110 3 1.1 0.7513148009015775 2.2761355034901136 2.448571799596939 0 0 0 0
160 4 0.6 4.629629629629631 1.792054336486256 3.03318722178094 0 0 0 0
197 4 0.6 4.629629629629631 3.9849704131763612 1.8056948719129764 0 0 0 0
5 1 1.8 0.1714677640603566 3.5618289048506053 2.719672261338239 0 0 0 0
19 1 1.8 0.1714677640603566 5.110094348647237 2.023945780124775 0 0 0 0
138 3 1.1 0.7513148009015775 6.299018981132017 2.3920702000085043 0 0 0 0
2 1 1.8 0.1714677640603566 -7.045873821210144 3.6277147937336274 0 0 0 0
165 4 0.6 4.629629629629631 -5.942425745326059 3.5970971913002323 0 0 0 0
35 1 1.8 0.1714677640603566 -4.84087425557737 3.6210718270588877 0 0 0 0
87 2 1.5 0.2962962962962963 -3.4904929743482427 3.8533773740587733 0 0 0 0
79 2 1.5 0.2962962962962963 -2.505551166618474 3.1292604594038096 0 0 0 0
144 3 1.1 0.7513148009015775 -1.3561038133542036 3.067146942575423 0 0 0 0
108 3 1.1 0.7513148009015775 -0.487016486534503 3.363152116723805 0 0 0 0
26 1 1.8 0.1714677640603566 0.7982848969484166 3.3739344475157917 0 0 0 0
3 1 1.8 0.1714677640603566 2.4425811916503655 3.8455139599972146 0 0 0 0
140 3 1.1 0.7513148009015775 3.7184309130619546 3.969592823662442 0 0 0 0
73 2 1.5 0.2962962962962963 4.788755578567386 3.4435499468747626 0 0 0 0
115 3 1.1 0.7513148009015775 5.8429871461062035 3.2412239522649795 0 0 0 0
166 4 0.6 4.629629629629631 6.307089531124223 3.861068365874594 0 0 0 0
1 1 1.8 0.1714677640603566 7.175848158101026 3.214771278522088 0 0 0 0
89 2 1.5 0.2962962962962963 -7.499911417652023 5.009295502498125 0 1 0 0
157 4 0.6 4.629629629629631 -6.632167416271878 4.595769252638531 0 0 0 0
104 3 1.1 0.7513148009015775 -5.906934661658061 4.361986062615971 0 0 0 0
99 2 1.5 0.2962962962962963 -6.275452601044811 5.449782110015045 0 0 0 0
30 1 1.8 0.1714677640603566 -4.864541996165304 5.211560572445064 0 0 0 0
175 4 0.6 4.629629629629631 -4.0634586845360525 4.538079431799151 0 0 0 0
131 3 1.1 0.7513148009015775 -3.5081586864581515 5.105554466210734 0 0 0 0
116 3 1.1 0.7513148009015775 -2.6813839821050323 4.522509470326714 0 0 0 0
23 1 1.8 0.1714677640603566 -1.4940103622890462 4.303095790767687 0 0 0 0
122 3 1.1 0.7513148009015775 -0.23456632001233402 4.283654513122363 0 0 0 0
65 2 1.5 0.2962962962962963 0.682094215336635 4.844701283384696 0 0 0 0
195 4 0.6 4.629629629629631 1.4643269632064069 4.328822412868682 0 0 0 0
37 1 1.8 0.1714677640603566 2.068883224236803 5.343607502356333 0 0 0 0
84 2 1.5 0.2962962962962963 3.4516370739184463 5.077040024546399 0 0 0 0
133 3 1.1 0.7513148009015775 4.48071284082013 4.525166610419328 0 0 0 0
60 2 1.5 0.2962962962962963 5.633527495177713 4.510532903366455 0 0 0 0
191 4 0.6 4.629629629629631 6.381901622547598 5.47378327472633 0 0 0 0
97 2 1.5 0.2962962962962963 6.926224490568387 4.642589375908665 0 0 0 0
50 1 1.8 0.1714677640603566 -7.083981228012367 6.536183625371551 0 0 0 0
152 4 0.6 4.629629629629631 -5.591291687883089 6.031780917188021 0 0 0 0
177 4 0.6 4.629629629629631 -5.94707456923766 6.402826386035597 0 0 0 0
106 3 1.1 0.7513148009015775 -5.101364804470645 6.5269252185185405 0 0 0 0
15 1 1.8 0.1714677640603566 -3.8176627330012627 6.418708582420765 0 0 0 0
34 1 1.8 0.1714677640603566 -2.3027432936024583 5.745789616452081 0 0 0 0
16 1 1.8 0.1714677640603566 -0.6186935398761904 5.603643565321212 0 0 0 0
57 2 1.5 0.2962962962962963 0.8348944655539068 6.108619918093728 0 0 0 0
29 1 1.8 0.1714677640603566 3.2789982319977558 6.5627763917803 0 0 0 0
17 1 1.8 0.1714677640603566 4.7387791174193925 5.748285726063115 0 0 0 0
180 4 0.6 4.629629629629631 5.838891731545578 5.460914102566326 0 0 0 0
10 1 1.8 0.1714677640603566 6.042498801140557 6.586817721477576 0 0 0 0
66 2 1.5 0.2962962962962963 7.254770087543376 5.928255377717845 0 0 0 0
64 2 1.5 0.2962962962962963 -5.922367255347272 7.361759412495724 0 0 -1 0
120 3 1.1 0.7513148009015775 -4.82148859887951 7.452045380806521 0 0 0 0
194 4 0.6 4.629629629629631 -4.109616951316958 7.453569906798343 0 0 0 0
162 4 0.6 4.629629629629631 -3.6441079750032026 7.553396738982759 0 0 0 0
12 1 1.8 0.1714677640603566 -2.5299009544054982 7.356567854274481 0 0 0 0
141 3 1.1 0.7513148009015775 -1.3744195860192105 6.6888655405440325 0 0 0 0
143 3 1.1 0.7513148009015775 -1.2550756639624279 7.687124170289934 0 0 0 0
41 1 1.8 0.1714677640603566 -0.12371258342665392 7.141738878264995 0 0 0 0
142 3 1.1 0.7513148009015775 1.199957526863093 7.182300583034364 0 0 0 0
119 3 1.1 0.7513148009015775 1.9565819621789675 6.600495318870104 0 0 0 0
62 2 1.5 0.2962962962962963 2.2161876229343314 7.7210567930255465 0 0 0 0
183 4 0.6 4.629629629629631 3.9095943735823777 7.521707983880084 0 0 0 0
96 2 1.5 0.2962962962962963 4.715473357466093 7.197815267695555 0 0 0 0
158 4 0.6 4.629629629629631 6.49807255947923 7.532617300454229 0 0 0 0
91 2 1.5 0.2962962962962963 7.422668634937887 7.280540388286289 0 0 0 0

Velocities

77 -0.014061737056118724 0.018631768967573927 0 0 0 0
167 0.03199576205089994 -0.015651150100654942 0 0 0 0
18 0.0021023400273419983 -0.0018932015216045408 0 0 0 0
68 -0.00664573093810465 0.0046482446231466 0 0 0 0
118 -0.025497580490751966 -0.031627341240481124 0 0 0 0
190 0.007187841569247328 0.0028377851392686914 0 0 0 0
32 -0.03351542058601924 0.006401796140365691 0 0 0 0
70 -0.025622155092586595 0.006564348783565973 0 0 0 0
168 -0.012924277345459936 0.013912303316727064 0 0 0 0
153 -0.008611504670267485 -0.023650549238507707 0 0 0 0
161 -0.01172881301200635 -0.02593369674493268 0 0 0 0
151 0.011973305591450331 -0.016568345294002588 0 0 0 0
200 -0.004441416968593114 -0.013410666543527629 0 0 0 0
186 -0.019288728698001918 -0.018456793108942687 0 0 0 0
154 -0.00019508406663337825 -0.014777106921572903 0 0 0 0
182 0.02354685127525792 -0.03251950417216399 0 0 0 0
121 0.02347119763950984 -0.0026419176082145388 0 0 0 0
86 0.008777825225885928 0.00010851294524969679 0 0 0 0
61 -0.006479778496683336 -0.012435759078462982 0 0 0 0
155 0.010116402123260537 0.009860886973456388 0 0 0 0
112 -0.004966492944952774 0.004394041866681121 0 0 0 0
170 -0.012162986820652704 0.0011001153374481027 0 0 0 0
88 0.007258732405275361 0.004502997858470987 0 0 0 0
72 -0.030153332092703874 -0.01075330932055526 0 0 0 0
149 -0.012237476699341172 0.03290141927904647 0 0 0 0
132 -0.023714830926910548 0.034889092795568816 0 0 0 0
164 -0.00834024217191431 -0.013359035559966021 0 0 0 0
13 -0.002235475061389979 -0.016488733592523987 0 0 0 0
181 -0.005264196365296354 0.01034317132311945 0 0 0 0
9 -0.004384576823288195 -0.018704994676542883 0 0 0 0
135 0.013545625985067394 0.046088962339840694 0 0 0 0
78 0.037219220621316 -0.015281358374957914 0 0 0 0
130 0.03396809202310817 -0.009271024110541188 0 0 0 0
20 0.007328420759463354 0.0166988471351317 0 0 0 0
174 0.012203577892190027 0.0031046699851623436 0 0 0 0
98 0.027236593088501845 0.00755743664369767 0 0 0 0
82 -0.01996001528424688 -0.016954400509712895 0 0 0 0
48 -0.009535065131682412 -0.005194252246498182 0 0 0 0
178 -0.002986925193102884 0.01158404508610599 0 0 0 0
31 -0.005054711399781416 0.010131260875938526 0 0 0 0
102 -0.015231996773630543 -0.01453984410304101 0 0 0 0
25 -0.00418269353399291 0.02858954090347405 0 0 0 0
93 -0.017268993136677527 -0.02318604951870895 0 0 0 0
176 0.014785300569309495 -0.01562572360924714 0 0 0 0
45 -0.007712961615863433 -0.0034542728141121856 0 0 0 0
63 -0.01305990484370077 -0.009222479247501374 0 0 0 0
69 0.00926528216369788 0.005764190481635576 0 0 0 0
44 0.03314912335415682 0.0010932475540494637 0 0 0 0
74 0.014085266810347628 -0.011112470792968612 0 0 0 0
188 -0.005727968633286412 0.01383758698291084 0 0 0 0
171 0.01766004964484211 0.0022456211416359236 0 0 0 0
139 0.0059685060032859255 0.009292073107909374 0 0 0 0
163 -0.0018576965051701041 0.015944358261549312 0 0 0 0
56 -0.007943614789196375 0.012566210739389906 0 0 0 0
105 0.014756313186045743 -0.011624776935950668 0 0 0 0
21 -0.005908025558202034 -0.0023826672264419544 0 0 0 0
117 -0.026660893005010285 -0.020067837684177595 0 0 0 0
4 -0.007639430323312483 -0.0064035261315523355 0 0 0 0
8 -0.021747023472850197 -0.007436234175909245 0 0 0 0
40 -0.01052071956080339 0.000772878841339807 0 0 0 0
148 -0.004895179559559389 -0.006428018263820026 0 0 0 0
146 0.005897102141101995 0.0038489111306322793 0 0 0 0
101 0.03982105948511759 -0.0034332086520541304 0 0 0 0
113 0.028708404443712185 0.02692591980121294 0 0 0 0
192 0.02956065324494463 0.013925452337535902 0 0 0 0
147 0.03727412644536231 0.012864459876321116 0 0 0 0
103 0.011212672031549738 0.024278136875731358 0 0 0 0
33 0.006802173316742319 -0.006370221453609432 0 0 0 0
172 0.027293579314879735 -0.007594996178614839 0 0 0 0
49 0.0008809621328130954 -0.015491424913118456 0 0 0 0
42 0.011434967941598026 0.011565523709816125 0 0 0 0
85 0.004787601563954273 -0.01921358505002893 0 0 0 0
150 0.0015296741903355032 -0.019820764261515 0 0 0 0
187 0.011205254902336008 0.0018744546146778648 0 0 0 0
179 -0.0055044762638556816 0.0042705565441549746 0 0 0 0
198 0.012293777263938694 0.010490926931167311 0 0 0 0
75 -0.003933044659635531 -0.014555153786510136 0 0 0 0
59 0.001291462913507783 -0.012719077859054432 0 0 0 0
95 -0.022963859178413874 0.02226193298618272 0 0 0 0
107 0.008580170853138601 0.031685844209091825 0 0 0 0
46 0.020664487078297645 0.020554252556429967 0 0 0 0
47 0.017232031123280898 0.032091977663963954 0 0 0 0
39 0.006429065629384348 -0.004526281056970055 0 0 0 0
52 0.01742298770083038 0.007114271684269652 0 0 0 0
136 0.00397971861590934 0.03243006887279886 0 0 0 0
7 -0.007200114650197666 -0.02007287323400526 0 0 0 0
199 -0.0061670868601550995 -0.007398915157762909 0 0 0 0
36 -0.01945239517924951 -0.00898028187796427 0 0 0 0
80 -0.010497715902536753 -0.0011263536491588496 0 0 0 0
27 -0.00786061534873926 0.0056088652378319 0 0 0 0
173 -0.006707819964331865 -0.034918803330032215 0 0 0 0
126 -0.017522290720377417 -0.00010778441566241509 0 0 0 0
94 -0.0012501179720737499 -0.014396806196018014 0 0 0 0
54 -0.0022111291136467986 0.01811886595245795 0 0 0 0
83 -0.0026418474707976575 0.020393023799575312 0 0 0 0
58 0.0006425187327433846 0.024075530882576836 0 0 0 0
109 0.012067098342387715 0.018819745833971998 0 0 0 0
90 0.021034812818161854 0.024911464239215614 0 0 0 0
114 -0.009947635275603323 0.0015008500362199916 0 0 0 0
53 -0.024203222324919206 -0.02672813561280983 0 0 0 0
55 0.009719600097222931 -0.011060892258148929 0 0 0 0
67 0.005711198729606371 -0.011720892729447437 0 0 0 0
127 0.023553588245401127 0.010764419906822314 0 0 0 0
137 0.02385272196527301 0.004956349799654793 0 0 0 0
111 0.0100202234672731 0.004257956959131917 0 0 0 0
51 0.004586952310627452 0.02351654268190378 0 0 0 0
11 -0.0038125453235767267 -0.01903151945505666 0 0 0 0
14 0.009250203043278879 -0.013777463279969733 0 0 0 0
76 0.011617132998350538 0.015855520769951736 0 0 0 0
81 -0.006283783407004669 -0.0056385090677379054 0 0 0 0
123 -0.007239661314844373 0.0017854763312924549 0 0 0 0
184 0.00897584483425091 -0.0072737769237567465 0 0 0 0
124 0.017723200668199744 0.0015608987329171786 0 0 0 0
156 0.0037401584213582056 -0.010744150813385627 0 0 0 0
24 -0.010708077743140898 -0.032737796216222845 0 0 0 0
169 -0.0051494646812206835 -0.042681669974574135 0 0 0 0
71 -0.02332724421629644 -0.017490749577874814 0 0 0 0
22 -0.003436877410817418 -0.011900282119615151 0 0 0 0
28 0.01633152033375416 -0.006633368839031963 0 0 0 0
125 0.03376187408129706 0.0039050895471216436 0 0 0 0
129 0.013308373226934638 0.016861827185570943 0 0 0 0
38 -0.01635358892536708 0.005159964949079255 0 0 0 0
189 0.006703273514929092 -0.007035986291092737 0 0 0 0
134 0.0039650884168486306 0.008227427009315008 0 0 0 0
6 -0.02074375006072523 0.007938397422539973 0 0 0 0
43 0.0102104581059089 -0.001833707278011969 0 0 0 0
145 0.01193554033546643 0.014440222972748289 0 0 0 0
128 0.0077322018270479555 0.026424577817925742 0 0 0 0
100 0.018310794186924 0.007939920267808511 0 0 0 0
92 0.017163596300547295 -0.03480734434163013 0 0 0 0
159 -0.021494928253834013 0.01999791512454938 0 0 0 0
193 -0.025097473469518322 -0.011173370918036569 0 0 0 0
185 -0.02990488209173466 -0.007395329997184055 0 0 0 0
196 0.03747279779359677 -0.006835046903639516 0 0 0 0
110 -0.007331634342087306 -0.017739848671472963 0 0 0 0
160 -0.006503703800937489 0.005112547005258178 0 0 0 0
197 0.019991238150931043 -0.012998748535450284 0 0 0 0
5 -0.01717739382028995 -0.0007633411580215888 0 0 0 0
19 -0.01801200630569137 0.00903408032034492 0 0 0 0
138 -0.01333585311941078 -0.0004203129316661051 0 0 0 0
2 -0.0006513206298602849 0.01700824855274553 0 0 0 0
165 0.038711348721831226 -0.02287628491949784 0 0 0 0
35 -0.012074916317531725 0.007453807020019925 0 0 0 0
87 -0.003450278613968449 0.0395867199759852 0 0 0 0
79 -0.017546911259996287 0.006856165865773728 0 0 0 0
144 -0.038988876493299136 0.005553077384871595 0 0 0 0
108 -0.0023176614076396607 -0.008257000936818982 0 0 0 0
26 0.005765810532618762 -0.017383111403006603 0 0 0 0
3 -0.002051569322052174 0.012407620112189313 0 0 0 0
140 1.2148348255584104e-05 0.004211698219165139 0 0 0 0
73 -0.006865188485064187 0.007913888682234525 0 0 0 0
115 0.0045254062318423405 0.005519289937955119 0 0 0 0
166 -0.006089236322213485 0.03334810728911443 0 0 0 0
1 -0.013301036949336518 -0.009556311750398522 0 0 0 0
89 -0.009016656054566495 0.012265013055020748 0 0 0 0
157 0.014431455979786317 0.032871957943278525 0 0 0 0
104 0.010154418147928704 0.018485392741854144 0 0 0 0
99 0.006597735732098349 0.020006840139699337 0 0 0 0
30 0.017170227243125873 0.0040408281336267995 0 0 0 0
175 -0.0012319421854725956 -0.0019582344380276134 0 0 0 0
131 0.011597932640434858 0.013239028111116446 0 0 0 0
116 -0.003922789233072025 -0.00308392682028138 0 0 0 0
23 -0.010183964988194155 -0.025105655740370398 0 0 0 0
122 0.012184191608835238 0.0040434093995971795 0 0 0 0
65 -0.0012058632157706437 -0.031533530745143486 0 0 0 0
195 -0.003555158537677066 -0.011110450902780181 0 0 0 0
37 -0.004948956110548564 -0.009354593721021499 0 0 0 0
84 0.007328720605537971 0.0093324657610614 0 0 0 0
133 0.0072964892767481875 -0.02424680843913937 0 0 0 0
60 -0.007864754218499396 0.022674684344789874 0 0 0 0
191 -0.04338739759534966 -0.029655662405755685 0 0 0 0
97 0.012824759127546343 -0.0314178282599994 0 0 0 0
50 0.0027150379084488864 -0.0012005211080239806 0 0 0 0
152 -0.035306903414693884 -0.01306678940726863 0 0 0 0
177 -0.028044923657325704 0.008694057468805066 0 0 0 0
106 -0.01634514468863745 -0.001696378795442841 0 0 0 0
15 0.01870562023246225 -0.015591999079835545 0 0 0 0
34 0.014225879598345164 -0.008586634204424745 0 0 0 0
16 -0.02055832414199764 0.0019106497695700617 0 0 0 0
57 -0.005244511471901163 0.01718546701333802 0 0 0 0
29 0.007257710156053898 -0.0020418411053392204 0 0 0 0
17 -0.010177152612101325 0.016052005125443254 0 0 0 0
180 -0.018898960507987488 0.0012629038212276019 0 0 0 0
10 -0.021836890622906776 0.01514992159630708 0 0 0 0
66 -0.03795404651159445 0.0022393737544968203 0 0 0 0
64 -0.01283864363895633 0.037183814189689066 0 0 0 0
120 0.0194781918610602 -0.008223586129684752 0 0 0 0
194 -0.01260024552919839 0.006329617623438575 0 0 0 0
162 -0.022180045806323535 -0.001579393167384476 0 0 0 0
12 0.0044612621859158475 -0.030235836764395632 0 0 0 0
141 0.009103096275856119 0.03271164631427198 0 0 0 0
143 -0.0006386460686637928 0.00538928343053374 0 0 0 0
41 0.010922420033045506 0.019530672053632833 0 0 0 0
142 0.0017522496514103285 0.0010024355080774953 0 0 0 0
119 0.012213855952539552 -0.010480161597476558 0 0 0 0
62 0.0003233723004828529 -0.02742673168967885 0 0 0 0
183 -0.02935187474560659 -0.006658487153854327 0 0 0 0
96 0.003212346099875649 -0.030452245533218104 0 0 0 0
158 0.00749229552933378 0.005674042972496363 0 0 0 0
91 0.013223130904846227 -0.001865897668674009 0 0 0 0
