LAMMPS data file via write_data, version 23 Jun 2022, timestep = 10000

400 atoms
4 atom types

-11.076988809104735 11.076988809104735 xlo xhi
-11.076988809104735 11.076988809104735 ylo yhi
-0.1 0.1 zlo zhi

Atoms # sphere

127 2 1.5 0.2962962962962963 -10.232702684508654 -10.409225214007174 0 0 1 0
200 2 1.5 0.2962962962962963 -8.867486919948602 -10.373123290697317 0 0 0 0
220 3 1.1 0.7513148009015775 -7.728509050944678 -10.207056103392139 0 0 1 0
344 4 0.6 4.629629629629631 -7.27753561911137 -10.834604672226979 0 0 1 0
118 2 1.5 0.2962962962962963 -6.543936348343194 -10.246451711476507 0 0 0 0
314 4 0.6 4.629629629629631 -5.809576482193165 -10.89051824130016 0 0 0 0
199 2 1.5 0.2962962962962963 -5.232149492326285 -10.075758769643558 0 0 0 0
185 2 1.5 0.2962962962962963 -3.367007238103316 -10.787420928635571 0 0 1 0
218 3 1.1 0.7513148009015775 -4.069215973383529 -9.917788823299917 0 0 0 0
374 4 0.6 4.629629629629631 -1.1082657563900025 -10.731566840935692 0 0 0 0
304 4 0.6 4.629629629629631 -0.6401029572339194 -10.590585597929236 0 0 1 0
394 4 0.6 4.629629629629631 -0.09795399079415645 -10.710629120844999 0 0 0 0
235 3 1.1 0.7513148009015775 -0.24217973422185501 -9.961608488152697 0 0 0 0
266 3 1.1 0.7513148009015775 0.5972399371213157 -10.266356357621603 0 0 0 0
336 4 0.6 4.629629629629631 1.1242615877758393 -10.755202319571707 0 0 1 0
74 1 1.8 0.1714677640603566 1.9844022009998312 -10.133907485232127 0 0 0 0
388 4 0.6 4.629629629629631 2.8203027848046656 -10.969625011105666 0 0 1 0
112 2 1.5 0.2962962962962963 3.5188530012879085 -10.480882621999827 0 0 1 0
58 1 1.8 0.1714677640603566 4.971664979793767 -10.014410089876064 0 0 1 0
136 2 1.5 0.2962962962962963 6.402770404143821 -9.851083949901788 0 0 1 0
333 4 0.6 4.629629629629631 6.503058506144368 -10.817541718938248 0 0 1 0
111 2 1.5 0.2962962962962963 7.459931797133779 -10.780447912578962 0 0 0 0
274 3 1.1 0.7513148009015775 8.621781623690014 -10.935464785834673 0 0 0 0
305 4 0.6 4.629629629629631 9.125809416708039 -10.348762252840086 0 0 0 0
169 2 1.5 0.2962962962962963 9.812216140510051 -11.009044753976118 0 0 1 0
212 3 1.1 0.7513148009015775 10.802362948495874 -10.443258558646638 0 0 1 0
317 4 0.6 4.629629629629631 -10.602785852042384 -9.559963729485517 0 0 0 0
290 3 1.1 0.7513148009015775 -11.004193595977966 -8.954722772768967 0 1 0 0
320 4 0.6 4.629629629629631 11.042094438582751 -9.721946382827543 0 0 1 0
18 1 1.8 0.1714677640603566 -9.594698202625915 -9.068672092740806 0 0 0 0
249 3 1.1 0.7513148009015775 -8.332868159786138 -9.355111482746915 0 0 0 0
80 1 1.8 0.1714677640603566 -7.16051052929714 -8.949657007552608 0 0 0 0
276 3 1.1 0.7513148009015775 -5.926000346507625 -9.220540404348172 0 0 0 0
13 1 1.8 0.1714677640603566 -4.698242888927027 -8.735682263770194 0 0 0 0
400 4 0.6 4.629629629629631 -3.7374155957621262 -9.180239534490857 0 0 0 0
32 1 1.8 0.1714677640603566 -2.7394080239424508 -9.504153506640435 0 0 0 0
120 2 1.5 0.2962962962962963 -1.3925190405721732 -9.833920588991305 0 0 1 0
318 4 0.6 4.629629629629631 0.40409857020826223 -9.499127636200997 0 0 0 0
303 4 0.6 4.629629629629631 0.9548180755560978 -9.678081495371854 0 0 0 0
311 4 0.6 4.629629629629631 2.989026816232167 -9.70736517271639 0 0 0 0
332 4 0.6 4.629629629629631 3.462959347067434 -9.47432804149021 0 0 0 0
301 4 0.6 4.629629629629631 3.9316581007016307 -9.6774989889925 0 0 0 0
282 3 1.1 0.7513148009015775 5.597563266089667 -8.901781402884684 0 0 0 0
391 4 0.6 4.629629629629631 7.376541029046093 -9.83347210731245 0 0 0 0
124 2 1.5 0.2962962962962963 7.353474307682303 -8.884774563570186 0 0 0 0
132 2 1.5 0.2962962962962963 8.370394531250627 -9.778450875270083 0 0 0 0
48 1 1.8 0.1714677640603566 9.898702895248137 -9.532483544202767 0 0 0 0
73 1 1.8 0.1714677640603566 -10.426607971606206 -7.7706270586706445 0 1 0 0
383 4 0.6 4.629629629629631 -9.31305801672002 -8.002614248073336 0 0 0 0
195 2 1.5 0.2962962962962963 -8.342842660554176 -8.12157469642203 0 0 0 0
232 3 1.1 0.7513148009015775 -5.956933666039696 -8.276289305315416 0 0 0 0
331 4 0.6 4.629629629629631 -3.5093927589636733 -8.651390616830263 0 0 0 0
263 3 1.1 0.7513148009015775 -2.729251870345255 -8.251877275966796 0 0 0 0
359 4 0.6 4.629629629629631 -2.072634404250424 -7.900699425681524 0 0 0 0
272 3 1.1 0.7513148009015775 -1.7506358963971174 -8.594488705816918 0 0 0 0
65 1 1.8 0.1714677640603566 -0.4827151946482413 -8.745703569517762 0 0 0 0
60 1 1.8 0.1714677640603566 1.1195732006460624 -8.64684881123236 0 0 0 0
350 4 0.6 4.629629629629631 1.0150875288572347 -7.610459787209238 0 0 0 0
92 1 1.8 0.1714677640603566 2.688293883879574 -8.675403140036064 0 0 0 0
399 4 0.6 4.629629629629631 1.9447639575590063 -7.895870197855507 0 0 0 0
324 4 0.6 4.629629629629631 3.0858009172615937 -7.783356579648752 0 0 0 0
230 3 1.1 0.7513148009015775 3.708596783563319 -7.561178301683933 0 0 0 0
20 1 1.8 0.1714677640603566 4.268357841590701 -8.685434853674556 0 0 1 0
168 2 1.5 0.2962962962962963 6.2839506307801205 -8.09296769771416 0 0 0 0
78 1 1.8 0.1714677640603566 8.806598321181829 -8.35781288965028 0 0 0 0
138 2 1.5 0.2962962962962963 10.291386445465983 -8.152166939379857 0 0 0 0
239 3 1.1 0.7513148009015775 -10.345449341608049 -6.448616678327125 0 1 0 0
122 2 1.5 0.2962962962962963 -9.197436078735324 -7.050026691846354 0 0 0 0
202 3 1.1 0.7513148009015775 -8.006841041180838 -6.9869847796857725 0 0 0 0
89 1 1.8 0.1714677640603566 -6.88558352970913 -7.398501715990799 0 0 0 0
192 2 1.5 0.2962962962962963 -5.301102111238348 -7.355916997300474 0 0 0 0
9 1 1.8 0.1714677640603566 -3.7628020585277904 -7.542256566522932 0 0 0 0
265 3 1.1 0.7513148009015775 -2.4693226233470664 -7.240759382394039 0 0 0 0
180 2 1.5 0.2962962962962963 -1.262288427988418 -7.421919494163559 0 0 0 0
128 2 1.5 0.2962962962962963 0.04944655664447595 -7.491838093600107 0 0 0 0
368 4 0.6 4.629629629629631 1.546501781234607 -7.543306508359077 0 0 0 0
113 2 1.5 0.2962962962962963 0.9971310048416395 -6.704473174082721 0 0 0 0
87 1 1.8 0.1714677640603566 2.4762722770740915 -6.94664915413183 0 0 0 0
178 2 1.5 0.2962962962962963 3.873564548716679 -6.431557907063373 0 0 0 0
96 1 1.8 0.1714677640603566 5.015581620505488 -7.418175118220017 0 0 0 0
148 2 1.5 0.2962962962962963 6.22687177594794 -6.681586310011739 0 0 0 0
86 1 1.8 0.1714677640603566 7.522205277033036 -7.419927533358953 0 0 0 0
247 3 1.1 0.7513148009015775 8.73945943953784 -7.013579584528928 0 0 0 0
338 4 0.6 4.629629629629631 8.171666510581828 -6.540124933797836 0 0 0 0
292 3 1.1 0.7513148009015775 9.6142625576248 -7.241065743545141 0 0 0 0
321 4 0.6 4.629629629629631 9.356160387289583 -6.513498445781478 0 0 0 0
165 2 1.5 0.2962962962962963 10.67770006568819 -6.864726504672452 0 0 0 0
328 4 0.6 4.629629629629631 -11.030071172660957 -6.038694788768158 0 1 0 0
160 2 1.5 0.2962962962962963 -9.433901374109388 -5.796989297818519 0 0 0 0
291 3 1.1 0.7513148009015775 -8.370536658618837 -6.187298495980684 0 0 0 0
205 3 1.1 0.7513148009015775 -7.373917239996867 -6.085282406131068 0 0 0 0
84 1 1.8 0.1714677640603566 -6.041684608134939 -6.095068670630802 0 0 0 0
25 1 1.8 0.1714677640603566 -4.416832458567385 -6.132127295754344 0 0 0 0
275 3 1.1 0.7513148009015775 -3.091649985657936 -6.429609829853542 0 0 0 0
45 1 1.8 0.1714677640603566 -1.829802527097657 -6.074797670973411 0 0 0 0
189 2 1.5 0.2962962962962963 -0.37224338044332406 -6.227209294859194 0 0 0 0
392 4 0.6 4.629629629629631 0.5901655824949827 -5.908066027995672 0 0 0 0
40 1 1.8 0.1714677640603566 1.7301154564356374 -5.540209302797036 0 0 0 0
280 3 1.1 0.7513148009015775 2.9852488611912005 -5.719328548217216 0 0 0 0
119 2 1.5 0.2962962962962963 5.068050730443423 -5.93189404846236 0 0 0 0
213 3 1.1 0.7513148009015775 6.11070786531255 -5.480336421259266 0 0 0 0
44 1 1.8 0.1714677640603566 7.382566875142638 -5.801193295913744 0 0 0 0
365 4 0.6 4.629629629629631 8.411136601933565 -5.293126403146828 0 0 0 0
203 3 1.1 0.7513148009015775 8.716402416592901 -6.009555142484643 0 0 0 0
393 4 0.6 4.629629629629631 8.946397965181676 -5.305543740591266 0 0 0 0
33 1 1.8 0.1714677640603566 10.029252367065686 -5.653684876678887 0 0 0 0
173 2 1.5 0.2962962962962963 -10.679758855753457 -5.20410157304109 0 1 0 0
31 1 1.8 0.1714677640603566 -9.36301210287738 -4.431429158109565 0 0 0 0
106 2 1.5 0.2962962962962963 -8.16033354720677 -5.139916715268919 0 0 0 0
21 1 1.8 0.1714677640603566 -6.800526663537238 -4.775435265346672 0 0 0 0
143 2 1.5 0.2962962962962963 -5.239971865548312 -4.878114469521979 0 0 0 0
326 4 0.6 4.629629629629631 -4.265894843041994 -5.065875120591123 0 0 0 0
217 3 1.1 0.7513148009015775 -4.232985818919144 -4.34306409403029 0 0 0 0
4 1 1.8 0.1714677640603566 -3.12474723573194 -5.115275977056695 0 0 0 0
355 4 0.6 4.629629629629631 -2.0093037519134196 -4.9585896076374505 0 0 0 0
8 1 1.8 0.1714677640603566 -0.90775631487376 -4.731036871264452 0 0 0 0
179 2 1.5 0.2962962962962963 0.4024172956165799 -5.03085685877934 0 0 0 0
125 2 1.5 0.2962962962962963 1.435744968703574 -4.175016314918612 0 0 0 0
186 2 1.5 0.2962962962962963 2.8132432632641997 -4.552910550728655 0 0 0 0
298 3 1.1 0.7513148009015775 3.8180507762553937 -5.248297004479326 0 0 0 0
248 3 1.1 0.7513148009015775 3.8812026806185447 -4.210955040928008 0 0 0 0
246 3 1.1 0.7513148009015775 4.665026824732976 -4.903500747089646 0 0 0 0
370 4 0.6 4.629629629629631 5.458168843573267 -5.036660007657514 0 0 0 0
357 4 0.6 4.629629629629631 5.360352174279912 -4.529680852246157 0 0 0 0
342 4 0.6 4.629629629629631 5.867752886290278 -4.693642612532762 0 0 0 0
207 3 1.1 0.7513148009015775 6.623928306789987 -4.680416004473042 0 0 0 0
59 1 1.8 0.1714677640603566 7.832715960092008 -4.354453840437109 0 0 0 0
152 2 1.5 0.2962962962962963 9.219398059807611 -4.44849205096262 0 0 0 0
166 2 1.5 0.2962962962962963 10.472008164072802 -4.173896602165552 0 0 0 0
251 3 1.1 0.7513148009015775 -10.63136616232423 -4.039965302338623 0 0 0 0
322 4 0.6 4.629629629629631 -10.333983781011458 -3.336869933262986 0 0 0 0
313 4 0.6 4.629629629629631 -10.02233474098907 -3.634215434967045 0 0 0 0
42 1 1.8 0.1714677640603566 -7.93717139270005 -3.6178975156995046 0 0 0 0
395 4 0.6 4.629629629629631 -6.859277278204336 -3.592580132614236 0 0 0 0
93 1 1.8 0.1714677640603566 -5.776166894697675 -3.5674598299905673 0 0 0 0
135 2 1.5 0.2962962962962963 -4.4043185953421915 -3.2501810189357956 0 0 0 0
294 3 1.1 0.7513148009015775 -3.3525474648651317 -3.8663906888964776 0 0 0 0
378 4 0.6 4.629629629629631 -3.535989107027821 -3.0948548848121025 0 0 0 0
283 3 1.1 0.7513148009015775 -2.8605671649152526 -3.0262658822363786 0 0 0 0
196 2 1.5 0.2962962962962963 -2.1335923425830305 -3.9822117851595307 0 0 0 0
70 1 1.8 0.1714677640603566 -0.7924653952557215 -3.08632923537919 0 0 0 0
278 3 1.1 0.7513148009015775 0.24319937069596698 -3.8853181844664695 0 0 0 0
329 4 0.6 4.629629629629631 0.24982412531718445 -3.097881895015175 0 0 0 0
260 3 1.1 0.7513148009015775 0.963664146387373 -3.1595436060817237 0 0 0 0
348 4 0.6 4.629629629629631 1.6931016959775391 -3.2579344568441178 0 0 0 0
271 3 1.1 0.7513148009015775 2.3533106204747885 -3.5150117568515364 0 0 0 0
289 3 1.1 0.7513148009015775 3.2936118806485606 -3.4354849832113423 0 0 0 0
201 3 1.1 0.7513148009015775 4.808849653504977 -4.027223019713722 0 0 0 0
109 2 1.5 0.2962962962962963 4.3826858952414565 -3.046282573344481 0 0 0 0
72 1 1.8 0.1714677640603566 5.930792784840213 -3.5414332216710465 0 0 0 0
380 4 0.6 4.629629629629631 6.896781505982071 -3.9203003777164698 0 0 0 0
377 4 0.6 4.629629629629631 7.107394049836598 -3.3964772230603817 0 0 0 0
176 2 1.5 0.2962962962962963 8.031955188058783 -3.013841675973408 0 0 0 0
389 4 0.6 4.629629629629631 8.710950771839363 -3.6694267151772317 0 0 0 0
47 1 1.8 0.1714677640603566 9.52095752547382 -2.9479981668843234 0 0 0 0
360 4 0.6 4.629629629629631 -10.13190533966084 -2.1577567947459713 0 0 0 0
49 1 1.8 0.1714677640603566 -9.34991286356944 -2.842572120384503 0 0 0 0
187 2 1.5 0.2962962962962963 -8.143247488108997 -2.1556989246886964 0 0 0 0
190 2 1.5 0.2962962962962963 -6.828574533916752 -2.5610661421846324 0 0 0 0
7 1 1.8 0.1714677640603566 -5.333302563237214 -2.0400845627096835 0 0 0 0
51 1 1.8 0.1714677640603566 -3.660038210857757 -1.973631144319656 0 0 0 0
250 3 1.1 0.7513148009015775 -2.0203703650380724 -2.860416250450596 0 0 0 0
337 4 0.6 4.629629629629631 -2.6000735847301204 -2.2723033115084554 0 0 0 0
130 2 1.5 0.2962962962962963 -1.734293036447454 -1.8701092816169798 0 0 0 0
286 3 1.1 0.7513148009015775 -0.5752914895614101 -1.7796578219964747 0 0 0 0
182 2 1.5 0.2962962962962963 0.5114042933509033 -2.1295871374290964 0 0 0 0
323 4 0.6 4.629629629629631 2.6621043851247546 -2.912171573501892 0 0 0 0
184 2 1.5 0.2962962962962963 1.8774442419582709 -2.3523793352905358 0 0 0 0
163 2 1.5 0.2962962962962963 3.261014812798143 -2.27037566820454 0 0 0 0
226 3 1.1 0.7513148009015775 4.329825536726881 -1.866012086907931 0 0 0 0
145 2 1.5 0.2962962962962963 5.390726733464293 -2.165506405331847 0 0 0 0
71 1 1.8 0.1714677640603566 6.856195049552786 -2.273556909693715 0 0 0 0
46 1 1.8 0.1714677640603566 8.440552987961206 -1.6980657316097627 0 0 0 0
362 4 0.6 4.629629629629631 9.615205419059256 -1.8187300289456232 0 0 0 0
39 1 1.8 0.1714677640603566 11.056661086131632 -2.7300847284173706 0 0 0 0
397 4 0.6 4.629629629629631 10.122126358203223 -2.040341760499702 0 0 0 0
273 3 1.1 0.7513148009015775 -10.453400317229946 -1.5406126795014252 0 1 0 0
102 2 1.5 0.2962962962962963 -9.356186757735829 -1.4259680749327952 0 0 0 0
296 3 1.1 0.7513148009015775 -8.330693361322322 -0.9878774311518654 0 0 0 0
198 2 1.5 0.2962962962962963 -7.243002970767434 -1.2418830280141684 0 0 0 0
372 4 0.6 4.629629629629631 -6.388162335031692 -1.6969564801649266 0 0 0 0
214 3 1.1 0.7513148009015775 -6.101495233820864 -0.9598443307042732 0 0 0 0
349 4 0.6 4.629629629629631 -4.473920353270531 -1.2967821151891705 0 0 0 0
257 3 1.1 0.7513148009015775 -3.9619179506989246 -0.6685335578715073 0 0 0 0
36 1 1.8 0.1714677640603566 -2.6302147481794567 -0.7638370251954054 0 0 0 0
105 2 1.5 0.2962962962962963 -1.149824188854307 -0.7522436951319733 0 0 0 0
27 1 1.8 0.1714677640603566 0.18413316412822134 -0.6783455712322883 0 0 0 0
175 2 1.5 0.2962962962962963 1.5006537331418546 -1.0886003675554985 0 0 0 0
254 3 1.1 0.7513148009015775 2.5469077087299485 -1.3274706083667454 0 0 0 0
144 2 1.5 0.2962962962962963 3.613777240913299 -1.0125228123861643 0 0 0 0
104 2 1.5 0.2962962962962963 4.922290738393519 -0.835974199752803 0 0 0 0
255 3 1.1 0.7513148009015775 6.014973531141868 -1.2447981256447491 0 0 0 0
54 1 1.8 0.1714677640603566 7.192273169610969 -0.73698891231742 0 0 0 0
133 2 1.5 0.2962962962962963 9.457288456486152 -0.8575207436013699 0 0 0 0
108 2 1.5 0.2962962962962963 10.6650209120999 -1.298134034684784 0 0 0 0
14 1 1.8 0.1714677640603566 -10.342361916372171 -0.24339467621758892 0 0 0 0
209 3 1.1 0.7513148009015775 -9.052384496316161 -0.31002043212081354 0 0 0 0
140 2 1.5 0.2962962962962963 -7.9775925304913 0.07180373793315731 0 0 0 0
236 3 1.1 0.7513148009015775 -6.829328460275142 -0.2872399244590511 0 0 0 0
223 3 1.1 0.7513148009015775 -5.901964022903125 0.07230708342739867 0 0 0 0
334 4 0.6 4.629629629629631 -5.138218039068173 0.3937374511713365 0 0 0 0
103 2 1.5 0.2962962962962963 -5.04068136148816 -0.5774950024206724 0 0 0 0
386 4 0.6 4.629629629629631 -4.414957697734858 0.07268336334928627 0 0 0 0
306 4 0.6 4.629629629629631 -3.910072050018524 0.16175459812541604 0 0 0 0
361 4 0.6 4.629629629629631 -3.5076569267408395 -0.12452005636873764 0 0 0 0
24 1 1.8 0.1714677640603566 -1.5532667369756794 0.5307430674348961 0 0 0 0
319 4 0.6 4.629629629629631 -0.4620190343996313 0.26266320985937597 0 0 0 0
227 3 1.1 0.7513148009015775 1.3513736489095116 0.04778701056895329 0 0 0 0
100 1 1.8 0.1714677640603566 2.6145201259869673 0.0504058555382354 0 0 0 0
211 3 1.1 0.7513148009015775 4.014599570087537 -0.02457059671064421 0 0 0 0
237 3 1.1 0.7513148009015775 5.928049337703131 -0.26259620779844184 0 0 0 0
101 2 1.5 0.2962962962962963 6.669302951035492 0.5904566433235647 0 0 0 0
225 3 1.1 0.7513148009015775 7.838267786192281 0.3506882934833193 0 0 0 0
229 3 1.1 0.7513148009015775 8.486502998441155 -0.312170122228526 0 0 0 0
11 1 1.8 0.1714677640603566 10.316438609853913 0.14080080560695585 0 0 0 0
379 4 0.6 4.629629629629631 -10.835116526062833 0.7507931068858316 0 0 0 0
364 4 0.6 4.629629629629631 -10.429389900682295 1.081283228642354 0 0 0 0
99 1 1.8 0.1714677640603566 -9.267557302118247 0.9756183395876441 0 0 0 0
126 2 1.5 0.2962962962962963 -7.967169698859202 1.456362828010196 0 0 0 0
131 2 1.5 0.2962962962962963 -6.86621875844811 0.7351111213834454 0 0 0 0
194 2 1.5 0.2962962962962963 -5.683052245680285 1.2200019561345776 0 0 0 0
150 2 1.5 0.2962962962962963 -4.356177650183295 1.0329549519800008 0 0 0 0
191 2 1.5 0.2962962962962963 -3.0246402323020103 0.646533371436103 0 0 0 0
299 3 1.1 0.7513148009015775 -2.1926889897123285 1.5323810957299493 0 0 0 0
297 3 1.1 0.7513148009015775 -0.5025957175080897 1.1335816746171918 0 0 0 0
117 2 1.5 0.2962962962962963 0.4422891590273128 0.6948784820301306 0 0 0 0
183 2 1.5 0.2962962962962963 1.596161591648757 1.2234505147600085 0 0 0 0
159 2 1.5 0.2962962962962963 2.8229639777659035 1.5534468773582937 0 0 0 0
277 3 1.1 0.7513148009015775 3.70471205049215 0.8325918177471809 0 0 0 0
28 1 1.8 0.1714677640603566 5.047168677911943 0.703409432666831 0 0 0 0
268 3 1.1 0.7513148009015775 4.050966125771323 1.716533151660153 0 0 0 0
287 3 1.1 0.7513148009015775 6.131175034974282 1.4499701506755454 0 0 0 0
396 4 0.6 4.629629629629631 6.944304637860592 1.5699516951984283 0 0 0 0
284 3 1.1 0.7513148009015775 7.631149339662736 1.2483709401579741 0 0 0 0
68 1 1.8 0.1714677640603566 8.964914084328251 0.9764357553947196 0 0 0 0
38 1 1.8 0.1714677640603566 10.5993488151547 1.5647201360013412 0 0 0 0
6 1 1.8 0.1714677640603566 -10.149956993565532 2.189134277051682 0 0 0 0
43 1 1.8 0.1714677640603566 -8.675710736185735 2.7548533959521855 0 0 0 0
245 3 1.1 0.7513148009015775 -7.365310126200324 2.3727294002634487 0 0 0 0
262 3 1.1 0.7513148009015775 -6.746594789080902 1.7579109921497125 0 0 0 0
155 2 1.5 0.2962962962962963 -6.061025592342137 2.6131306424154648 0 0 0 0
224 3 1.1 0.7513148009015775 -5.025452441876346 2.0658054443222458 0 0 0 0
228 3 1.1 0.7513148009015775 -4.196444936100752 2.2905112403540606 0 0 0 0
142 2 1.5 0.2962962962962963 -3.296605671062511 1.8807093307089335 0 0 0 0
193 2 1.5 0.2962962962962963 -2.312901254212317 2.630534639104816 0 0 0 0
121 2 1.5 0.2962962962962963 -1.122359402312087 2.054878900632067 0 0 0 0
309 4 0.6 4.629629629629631 -1.4451698450103319 2.9726366446090466 0 0 0 0
22 1 1.8 0.1714677640603566 0.3720614313993753 2.174976466479446 0 0 0 0
95 1 1.8 0.1714677640603566 1.7731516300242252 2.7432896402128435 0 0 0 0
90 1 1.8 0.1714677640603566 3.3048493486221826 2.8759281449308 0 0 0 0
352 4 0.6 4.629629629629631 4.244070589847206 2.4824880481846723 0 0 0 0
79 1 1.8 0.1714677640603566 5.248133062828591 2.2875687103469833 0 0 0 0
300 3 1.1 0.7513148009015775 6.6187151461073075 2.244357316100688 0 0 0 0
367 4 0.6 4.629629629629631 7.019971966928379 2.806108354456951 0 0 0 0
19 1 1.8 0.1714677640603566 7.996344778359466 2.4102222801532385 0 0 0 0
170 2 1.5 0.2962962962962963 9.423003616096024 2.3992848589514715 0 0 0 0
373 4 0.6 4.629629629629631 10.98158260769076 2.657125769355133 0 0 0 0
339 4 0.6 4.629629629629631 10.417593196031438 2.5981893124893194 0 0 0 0
234 3 1.1 0.7513148009015775 -10.66561334030699 3.284988681724908 0 1 0 0
264 3 1.1 0.7513148009015775 -9.776244752083162 3.5387508405225976 0 0 0 0
315 4 0.6 4.629629629629631 -9.085149260452669 3.815751596563649 0 0 0 0
35 1 1.8 0.1714677640603566 -7.223152293764118 3.5245779805088038 0 0 0 0
137 2 1.5 0.2962962962962963 -5.785027367171519 3.965655169063517 0 0 0 0
129 2 1.5 0.2962962962962963 -4.800879447728461 3.215248261964396 0 0 0 0
177 2 1.5 0.2962962962962963 -3.4623196070682276 3.2694469071601873 0 0 0 0
76 1 1.8 0.1714677640603566 -2.0363046483839558 3.9449259083118573 0 0 0 0
66 1 1.8 0.1714677640603566 -0.5129322424410834 3.4560488803224985 0 0 0 0
343 4 0.6 4.629629629629631 0.6800392666194028 3.3217330676907633 0 0 0 0
346 4 0.6 4.629629629629631 1.1759765364417198 3.649558785193994 0 0 0 0
310 4 0.6 4.629629629629631 2.5709332849388815 3.5945119224599527 0 0 0 0
376 4 0.6 4.629629629629631 2.9418497814759945 4.049542181780886 0 0 0 0
353 4 0.6 4.629629629629631 4.3979356648816275 3.040406327070155 0 0 0 0
261 3 1.1 0.7513148009015775 5.035951034281057 3.5021269172913865 0 0 0 0
63 1 1.8 0.1714677640603566 6.244127210342699 3.5316664879577253 0 0 0 0
347 4 0.6 4.629629629629631 7.300164855489131 3.1991488788806013 0 0 0 0
123 2 1.5 0.2962962962962963 7.587207565707727 4.019915162579954 0 0 0 0
157 2 1.5 0.2962962962962963 8.879471615038403 3.6375864072530426 0 0 0 0
52 1 1.8 0.1714677640603566 10.313657236825994 3.5944709138055693 0 0 0 0
253 3 1.1 0.7513148009015775 -10.614935461298817 4.218038507127211 0 0 0 0
2 1 1.8 0.1714677640603566 -9.498507817701654 4.871343434610083 0 0 0 0
204 3 1.1 0.7513148009015775 -8.403539378482165 4.106275969407454 0 0 0 0
325 4 0.6 4.629629629629631 -7.74198235413566 4.470199501481879 0 0 0 0
161 2 1.5 0.2962962962962963 -6.849166935094951 4.857286840238961 0 0 0 0
82 1 1.8 0.1714677640603566 -4.246909085380308 4.573175627084771 0 0 0 0
387 4 0.6 4.629629629629631 -3.1840746653264027 4.151327373797022 0 0 0 0
244 3 1.1 0.7513148009015775 -2.961282367832732 4.857867880663944 0 0 0 0
208 3 1.1 0.7513148009015775 -2.06743288121514 5.1322702445994555 0 0 0 0
162 2 1.5 0.2962962962962963 -0.9084944547545959 4.997229880071496 0 0 0 0
98 1 1.8 0.1714677640603566 0.507922854233529 4.504066227795613 0 0 0 0
335 4 0.6 4.629629629629631 1.373358349048667 5.05988034486859 0 0 0 0
172 2 1.5 0.2962962962962963 1.971924610172799 4.262096182787259 0 0 0 0
3 1 1.8 0.1714677640603566 3.1773038495932493 5.241506562555097 0 0 0 0
91 1 1.8 0.1714677640603566 4.081275209417521 4.1572933300538395 0 0 0 0
210 3 1.1 0.7513148009015775 5.314780560484413 4.4730409763885675 0 0 0 0
75 1 1.8 0.1714677640603566 6.404660957799708 5.108416609255746 0 0 0 0
233 3 1.1 0.7513148009015775 7.700847676515368 5.1503909056637 0 0 0 0
238 3 1.1 0.7513148009015775 8.514641716668146 4.702162276727217 0 0 0 0
1 1 1.8 0.1714677640603566 9.724465852586674 5.0058467477523525 0 0 0 0
366 4 0.6 4.629629629629631 10.780302181945943 4.5355282841954025 0 0 0 0
382 4 0.6 4.629629629629631 -10.155202106026499 5.812525643845044 0 0 0 0
197 2 1.5 0.2962962962962963 -10.944303342023517 5.330224029680265 0 1 0 0
307 4 0.6 4.629629629629631 -8.794754391987134 5.748647423735703 0 0 0 0
149 2 1.5 0.2962962962962963 -8.050359248023637 5.323912609457187 0 0 0 0
384 4 0.6 4.629629629629631 -8.402675551057843 6.228925925747921 0 0 0 0
363 4 0.6 4.629629629629631 -7.910706027410665 6.300067125603443 0 0 0 0
77 1 1.8 0.1714677640603566 -6.850504654103363 6.34225788300383 0 0 0 0
30 1 1.8 0.1714677640603566 -5.56568637371047 5.367477666683625 0 0 0 0
153 2 1.5 0.2962962962962963 -4.389883761103093 6.141218286681715 0 0 0 0
216 3 1.1 0.7513148009015775 -3.417223808461559 5.646087702308838 0 0 0 0
351 4 0.6 4.629629629629631 -2.6911072196150645 5.623071364651706 0 0 0 0
57 1 1.8 0.1714677640603566 -1.8269086082619275 6.280538348035856 0 0 0 0
371 4 0.6 4.629629629629631 -0.051353783782895235 5.474235045724013 0 0 0 0
222 3 1.1 0.7513148009015775 -0.4756971776604786 6.128808592892613 0 0 0 0
26 1 1.8 0.1714677640603566 0.8743172748803101 6.099620520422141 0 0 0 0
267 3 1.1 0.7513148009015775 1.9612329556012167 5.432672455355787 0 0 0 0
5 1 1.8 0.1714677640603566 4.764436213077429 5.682812911811068 0 0 0 0
83 1 1.8 0.1714677640603566 7.479305852141602 6.341639421782899 0 0 0 0
215 3 1.1 0.7513148009015775 8.599293073884608 5.67310624244489 0 0 0 0
316 4 0.6 4.629629629629631 9.308377836913598 6.087301801962441 0 0 0 0
356 4 0.6 4.629629629629631 8.84718512011778 6.3287386874296505 0 0 0 0
139 2 1.5 0.2962962962962963 10.264275592930948 6.293895158898055 0 0 0 0
164 2 1.5 0.2962962962962963 -10.725072623117264 6.658853351286924 0 0 0 0
94 1 1.8 0.1714677640603566 -9.399766032700217 6.556105273843313 0 0 0 0
50 1 1.8 0.1714677640603566 -8.12730921360834 7.402352481688803 0 0 0 0
231 3 1.1 0.7513148009015775 -5.488266535775613 6.5898475219718815 0 0 0 0
279 3 1.1 0.7513148009015775 -5.9759478707568086 7.329376210067261 0 0 0 0
167 2 1.5 0.2962962962962963 -3.2608189000362753 6.808188107267421 0 0 0 0
97 1 1.8 0.1714677640603566 -0.7703886373828155 7.403699321194603 0 0 0 0
390 4 0.6 4.629629629629631 0.054558371992552424 6.754726183803109 0 0 0 0
345 4 0.6 4.629629629629631 1.45451073083205 7.054293951172033 0 0 0 0
55 1 1.8 0.1714677640603566 2.4735045343380513 6.597050035600679 0 0 0 0
295 3 1.1 0.7513148009015775 3.792788130777863 6.488971092855303 0 0 0 0
240 3 1.1 0.7513148009015775 4.653831831913582 7.11037386448765 0 0 0 0
17 1 1.8 0.1714677640603566 5.937381214693739 6.642899038824799 0 0 0 0
381 4 0.6 4.629629629629631 8.500665904016875 6.668027039537735 0 0 0 0
281 3 1.1 0.7513148009015775 8.20644608950043 7.404673361416906 0 0 0 0
147 2 1.5 0.2962962962962963 9.335913644175799 7.1182293217925 0 0 0 0
64 1 1.8 0.1714677640603566 -10.146753833791497 8.028184616510151 0 0 0 0
375 4 0.6 4.629629629629631 -9.160984305146508 7.628856459108894 0 0 0 0
302 4 0.6 4.629629629629631 -8.9942756830375 8.141336768315279 0 0 0 0
206 3 1.1 0.7513148009015775 -6.928995564652671 7.6658245331428585 0 0 0 0
15 1 1.8 0.1714677640603566 -6.044637638067109 8.55375380717833 0 0 0 0
34 1 1.8 0.1714677640603566 -4.639832511024648 7.599883135861754 0 0 0 0
256 3 1.1 0.7513148009015775 -3.474496574291625 7.986990660940291 0 0 0 0
23 1 1.8 0.1714677640603566 -2.2457962370606985 7.836245544626303 0 0 0 0
354 4 0.6 4.629629629629631 -1.3205272906688492 8.414694768797451 0 0 0 0
115 2 1.5 0.2962962962962963 0.6444676903113393 7.5841565052248665 0 0 0 0
259 3 1.1 0.7513148009015775 0.9794170659275618 8.697241109024501 0 0 0 0
37 1 1.8 0.1714677640603566 2.0761677278318107 8.005002493815143 0 0 0 0
134 2 1.5 0.2962962962962963 3.5692151556862726 7.642754114310884 0 0 0 0
62 1 1.8 0.1714677640603566 5.630261320297185 8.113439885537213 0 0 0 0
110 2 1.5 0.2962962962962963 7.050871516380122 7.712106302336133 0 0 0 0
146 2 1.5 0.2962962962962963 8.16817614210405 8.550281105320144 0 0 0 0
341 4 0.6 4.629629629629631 8.790121438139826 7.887238234153232 0 0 0 0
181 2 1.5 0.2962962962962963 9.540034553282334 8.472793427271347 0 0 0 0
116 2 1.5 0.2962962962962963 10.574051681465034 7.65096595674869 0 0 0 0
258 3 1.1 0.7513148009015775 -10.337797701870565 9.297792489396384 0 0 0 0
327 4 0.6 4.629629629629631 -10.011133217588428 9.895461692373575 0 0 0 0
88 1 1.8 0.1714677640603566 -9.059094557166205 9.227877118809753 0 0 0 0
67 1 1.8 0.1714677640603566 -7.546971018715919 8.907015243543333 0 0 0 0
312 4 0.6 4.629629629629631 -6.569592472390485 9.592512543025562 0 0 0 0
398 4 0.6 4.629629629629631 -7.0921314058168115 9.865012584810797 0 0 0 0
188 2 1.5 0.2962962962962963 -5.578379853735851 9.830478446409165 0 0 0 0
270 3 1.1 0.7513148009015775 -4.862012977819142 8.859333780025386 0 0 0 0
269 3 1.1 0.7513148009015775 -4.393420964626301 9.664943549781858 0 0 0 0
243 3 1.1 0.7513148009015775 -3.9199955947165526 8.832038052241876 0 0 0 0
241 3 1.1 0.7513148009015775 -3.0066977152237495 8.876246885373503 0 0 0 0
56 1 1.8 0.1714677640603566 -1.8537652526650596 9.413369845169514 0 0 0 0
16 1 1.8 0.1714677640603566 -0.31196863911310224 8.830051043990318 0 0 0 0
107 2 1.5 0.2962962962962963 0.6743126336272951 9.835457424179326 0 0 0 0
61 1 1.8 0.1714677640603566 2.028083014405226 9.522114251391463 0 0 0 0
219 3 1.1 0.7513148009015775 3.125408061398282 8.796707839766354 0 0 0 0
29 1 1.8 0.1714677640603566 4.3700698371138245 8.857036099037794 0 0 0 0
151 2 1.5 0.2962962962962963 5.746072655616212 9.579964934438935 0 0 0 0
385 4 0.6 4.629629629629631 6.634609691967446 9.851904572500752 0 0 0 0
171 2 1.5 0.2962962962962963 6.947123185079237 9.005056722375622 0 0 0 0
330 4 0.6 4.629629629629631 8.94085837625875 9.19625577020574 0 0 0 0
141 2 1.5 0.2962962962962963 9.723000877117917 9.814754607005836 0 0 0 0
156 2 1.5 0.2962962962962963 10.786300151220319 8.963727273033479 0 0 0 0
81 1 1.8 0.1714677640603566 -11.021868748411869 10.437207162026974 0 1 0 0
114 2 1.5 0.2962962962962963 -9.525550999113026 10.642229642003299 0 0 -1 0
85 1 1.8 0.1714677640603566 -8.046967084614055 10.531844463000153 0 0 0 0
174 2 1.5 0.2962962962962963 -6.586402680117489 10.616364072108892 0 0 -1 0
340 4 0.6 4.629629629629631 -5.642074820322216 10.778523072109257 0 0 -1 0
12 1 1.8 0.1714677640603566 -4.575402055867078 10.892683401484616 0 0 0 0
158 2 1.5 0.2962962962962963 -3.2812563177067533 9.993764803043275 0 0 0 0
69 1 1.8 0.1714677640603566 -2.110362794071685 11.012255535277161 0 0 0 0
41 1 1.8 0.1714677640603566 -0.6386847052795428 10.425689707065727 0 0 0 0
288 3 1.1 0.7513148009015775 0.4957689356180026 10.96017018639502 0 0 0 0
285 3 1.1 0.7513148009015775 1.431609967521414 10.738892642423854 0 0 0 0
242 3 1.1 0.7513148009015775 2.3257001850487597 10.756309144882787 0 0 0 0
53 1 1.8 0.1714677640603566 3.4457652627301574 10.16297918223758 0 0 0 0
221 3 1.1 0.7513148009015775 4.746859394959079 10.105756938426639 0 0 0 0
293 3 1.1 0.7513148009015775 4.434134300596327 10.981782641910824 0 0 0 0
154 2 1.5 0.2962962962962963 5.6177096979111045 10.946425327990033 0 0 0 0
358 4 0.6 4.629629629629631 7.1310935940977505 9.951439648583294 0 0 0 0
252 3 1.1 0.7513148009015775 6.589864408326809 10.542812258613191 0 0 0 0
369 4 0.6 4.629629629629631 7.287398518090976 10.459170997942765 0 0 0 0
10 1 1.8 0.1714677640603566 8.20918661692445 9.977684829273008 0 0 0 0
308 4 0.6 4.629629629629631 9.088486061316884 10.580614318312806 0 0 0 0

Velocities

127 -0.00396976888349831 -0.024703381098390598 0 0 0 0