LAMMPS data file.

    200 atoms
    581 bonds
   2996 angles
      0 dihedrals
      0 impropers
      1 atom types
    581 bond types
   2996 angle types
      0 dihedral types
      0 improper types
  -7.833703   7.833703 xlo xhi
  -7.833703   7.833703 ylo yhi
  -0.100000   0.100000 zlo zhi
0.0 0.0 0.0 xy xz yz

Masses # ['atom_id', 'mass']

1 1000000.0

Atoms # ['atomID', 'moleculeID', 'atomType', 'charge', 'x', 'y', 'z']

     77      1      1   0.000000  -7.049637  -7.582773   0.000000
    167      1      1   0.000000  -6.664428  -6.655456   0.000000
     18      1      1   0.000000  -5.603012  -6.908581   0.000000
     68      1      1   0.000000  -4.243002  -7.267320   0.000000
    118      1      1   0.000000  -3.146981  -6.989006   0.000000
    190      1      1   0.000000  -3.395120  -7.668715   0.000000
     32      1      1   0.000000  -1.942594  -6.891463   0.000000
     70      1      1   0.000000  -0.427487  -7.109203   0.000000
    168      1      1   0.000000   0.418712  -7.549793   0.000000
    153      1      1   0.000000   0.549653  -7.023655   0.000000
    161      1      1   0.000000   0.950008  -7.356237   0.000000
    151      1      1   0.000000   1.508806  -7.217444   0.000000
    200      1      1   0.000000   1.096317  -6.852620   0.000000
    186      1      1   0.000000   1.312867  -7.724774   0.000000
    154      1      1   0.000000   0.802118   7.795991   0.000000
    182      1      1   0.000000   1.966553  -7.008794   0.000000
    121      1      1   0.000000   3.297343  -7.815966   0.000000
     86      1      1   0.000000   4.302639  -7.214007   0.000000
     61      1      1   0.000000   5.729642  -7.580173   0.000000
    155      1      1   0.000000   6.634080  -7.283629   0.000000
    112      1      1   0.000000   7.433190  -7.277448   0.000000
    170      1      1   0.000000   6.767994  -7.718265   0.000000
     88      1      1   0.000000  -7.575965  -6.355530   0.000000
     72      1      1   0.000000  -6.456731  -5.678615   0.000000
    149      1      1   0.000000  -5.304134  -5.619851   0.000000
    132      1      1   0.000000  -4.464086  -6.083483   0.000000
    164      1      1   0.000000  -3.790985  -6.486593   0.000000
     13      1      1   0.000000  -3.142899  -5.675844   0.000000
    181      1      1   0.000000  -1.030398  -6.398291   0.000000
      9      1      1   0.000000  -1.567639  -5.416651   0.000000
    135      1      1   0.000000  -0.476629  -5.922357   0.000000
     78      1      1   0.000000   0.543774  -6.099130   0.000000
    130      1      1   0.000000   1.649718  -6.332442   0.000000
     20      1      1   0.000000   2.956293  -6.597035   0.000000
    174      1      1   0.000000   2.194952  -5.802532   0.000000
     98      1      1   0.000000   4.166683  -5.785607   0.000000
     82      1      1   0.000000   5.275813  -6.401830   0.000000
     48      1      1   0.000000   6.639127  -6.240011   0.000000
    178      1      1   0.000000  -7.352438  -5.402166   0.000000
     31      1      1   0.000000  -7.187889  -4.290779   0.000000
    102      1      1   0.000000  -5.835698  -4.752719   0.000000
     25      1      1   0.000000  -4.457310  -4.698773   0.000000
     93      1      1   0.000000  -3.044947  -4.224175   0.000000
    176      1      1   0.000000  -2.374606  -4.767257   0.000000
     45      1      1   0.000000  -0.051053  -4.704205   0.000000
     63      1      1   0.000000   1.474528  -5.154521   0.000000
     69      1      1   0.000000   2.928664  -5.140234   0.000000
     44      1      1   0.000000   4.274141  -4.337415   0.000000
     74      1      1   0.000000   5.497927  -5.155467   0.000000
    188      1      1   0.000000   6.409669  -5.171997   0.000000
    171      1      1   0.000000   6.915383  -5.231580   0.000000
    139      1      1   0.000000   7.617847  -5.276827   0.000000
    163      1      1   0.000000  -7.665172  -3.245443   0.000000
     56      1      1   0.000000  -5.921712  -3.666676   0.000000
    105      1      1   0.000000  -4.899019  -3.554148   0.000000
     21      1      1   0.000000  -3.806589  -3.056567   0.000000
    117      1      1   0.000000  -2.481178  -3.181999   0.000000
      4      1      1   0.000000  -1.532072  -3.943404   0.000000
      8      1      1   0.000000  -0.306683  -2.993069   0.000000
     40      1      1   0.000000   1.088500  -3.721850   0.000000
    148      1      1   0.000000   2.203749  -4.251349   0.000000
    146      1      1   0.000000   3.069794  -3.975950   0.000000
    101      1      1   0.000000   3.587743  -3.197009   0.000000
    113      1      1   0.000000   5.055152  -3.192829   0.000000
    192      1      1   0.000000   4.315964  -3.231116   0.000000
    147      1      1   0.000000   5.541968  -4.028227   0.000000
    103      1      1   0.000000   6.034740  -3.186432   0.000000
     33      1      1   0.000000   6.822189  -4.182521   0.000000
    172      1      1   0.000000   7.612673  -3.528876   0.000000
     49      1      1   0.000000  -6.861750  -2.579622   0.000000
     42      1      1   0.000000  -5.271825  -2.304417   0.000000
     85      1      1   0.000000  -2.696827  -2.112415   0.000000
    150      1      1   0.000000  -1.588587  -2.629919   0.000000
    187      1      1   0.000000  -1.795165  -1.917522   0.000000
    179      1      1   0.000000  -0.109284  -1.892256   0.000000
    198      1      1   0.000000   0.315989  -2.095250   0.000000
     75      1      1   0.000000   1.144657  -2.329149   0.000000
     59      1      1   0.000000   2.347107  -3.026131   0.000000
     95      1      1   0.000000   3.289043  -2.174220   0.000000
    107      1      1   0.000000   4.387695  -2.494247   0.000000
     46      1      1   0.000000   5.645805  -1.960611   0.000000
     47      1      1   0.000000   7.158922  -2.480821   0.000000
     39      1      1   0.000000  -7.622830  -1.151011   0.000000
     52      1      1   0.000000  -6.203333  -1.195483   0.000000
    136      1      1   0.000000  -5.101618  -1.002160   0.000000
      7      1      1   0.000000  -3.916760  -1.418085   0.000000
    199      1      1   0.000000  -3.136010  -0.820183   0.000000
     36      1      1   0.000000  -2.131247  -0.829861   0.000000
     80      1      1   0.000000  -0.935789  -1.595622   0.000000
     27      1      1   0.000000   0.431434  -0.944275   0.000000
    173      1      1   0.000000   1.449974  -1.466180   0.000000
    126      1      1   0.000000   2.169455  -1.810366   0.000000
     94      1      1   0.000000   1.840903  -0.632693   0.000000
     54      1      1   0.000000   3.038143  -0.984573   0.000000
     83      1      1   0.000000   4.279918  -1.329051   0.000000
     58      1      1   0.000000   6.690957  -0.802759   0.000000
    109      1      1   0.000000  -6.755252  -0.163518   0.000000
     90      1      1   0.000000  -5.576070   0.036922   0.000000
    114      1      1   0.000000  -4.466939  -0.229284   0.000000
     53      1      1   0.000000  -3.329927   0.076558   0.000000
     55      1      1   0.000000  -0.852923  -0.212041   0.000000
     67      1      1   0.000000   0.070840   0.584417   0.000000
    127      1      1   0.000000   1.072657   0.233324   0.000000
    137      1      1   0.000000   2.771012   0.073780   0.000000
    111      1      1   0.000000   1.926163   0.537672   0.000000
     51      1      1   0.000000   3.909113   0.046984   0.000000
     11      1      1   0.000000   5.289738  -0.433219   0.000000
     14      1      1   0.000000   7.726235   0.447070   0.000000
     76      1      1   0.000000  -6.496833   0.995589   0.000000
     81      1      1   0.000000  -5.177896   1.274538   0.000000
    123      1      1   0.000000  -4.267668   0.703058   0.000000
    184      1      1   0.000000  -3.579705   1.075568   0.000000
    124      1      1   0.000000  -4.056567   1.699371   0.000000
    156      1      1   0.000000  -3.062537   0.971352   0.000000
     24      1      1   0.000000  -1.963086   0.739060   0.000000
    169      1      1   0.000000  -0.872005   0.891933   0.000000
     71      1      1   0.000000  -0.377018   1.754844   0.000000
     22      1      1   0.000000   1.174764   1.621571   0.000000
     28      1      1   0.000000   2.888639   1.311448   0.000000
    125      1      1   0.000000   4.128137   1.132450   0.000000
    129      1      1   0.000000   4.929574   0.738175   0.000000
     38      1      1   0.000000   6.236238   0.708403   0.000000
    189      1      1   0.000000   6.191266   1.712211   0.000000
    134      1      1   0.000000   7.013333   1.722135   0.000000
      6      1      1   0.000000  -7.475141   2.021197   0.000000
     43      1      1   0.000000  -5.980713   2.455394   0.000000
    145      1      1   0.000000  -4.689107   2.359487   0.000000
    128      1      1   0.000000  -3.762656   2.734836   0.000000
    100      1      1   0.000000  -2.954762   1.890036   0.000000
     92      1      1   0.000000  -1.623729   2.060151   0.000000
    159      1      1   0.000000  -0.721600   2.621852   0.000000
    193      1      1   0.000000  -0.126246   2.692984   0.000000
    185      1      1   0.000000   0.349206   2.390047   0.000000
    196      1      1   0.000000   1.548452   2.596257   0.000000
    110      1      1   0.000000   2.276136   2.448572   0.000000
    160      1      1   0.000000   1.792054   3.033187   0.000000
    197      1      1   0.000000   3.984970   1.805695   0.000000
      5      1      1   0.000000   3.561829   2.719672   0.000000
     19      1      1   0.000000   5.110094   2.023946   0.000000
    138      1      1   0.000000   6.299019   2.392070   0.000000
      2      1      1   0.000000  -7.045874   3.627715   0.000000
    165      1      1   0.000000  -5.942426   3.597097   0.000000
     35      1      1   0.000000  -4.840874   3.621072   0.000000
     87      1      1   0.000000  -3.490493   3.853377   0.000000
     79      1      1   0.000000  -2.505551   3.129260   0.000000
    144      1      1   0.000000  -1.356104   3.067147   0.000000
    108      1      1   0.000000  -0.487016   3.363152   0.000000
     26      1      1   0.000000   0.798285   3.373934   0.000000
      3      1      1   0.000000   2.442581   3.845514   0.000000
    140      1      1   0.000000   3.718431   3.969593   0.000000
     73      1      1   0.000000   4.788756   3.443550   0.000000
    115      1      1   0.000000   5.842987   3.241224   0.000000
    166      1      1   0.000000   6.307090   3.861068   0.000000
      1      1      1   0.000000   7.175848   3.214771   0.000000
     89      1      1   0.000000  -7.499911   5.009296   0.000000
    157      1      1   0.000000  -6.632167   4.595769   0.000000
    104      1      1   0.000000  -5.906935   4.361986   0.000000
     99      1      1   0.000000  -6.275453   5.449782   0.000000
     30      1      1   0.000000  -4.864542   5.211561   0.000000
    175      1      1   0.000000  -4.063459   4.538079   0.000000
    131      1      1   0.000000  -3.508159   5.105554   0.000000
    116      1      1   0.000000  -2.681384   4.522509   0.000000
     23      1      1   0.000000  -1.494010   4.303096   0.000000
    122      1      1   0.000000  -0.234566   4.283655   0.000000
     65      1      1   0.000000   0.682094   4.844701   0.000000
    195      1      1   0.000000   1.464327   4.328822   0.000000
     37      1      1   0.000000   2.068883   5.343608   0.000000
     84      1      1   0.000000   3.451637   5.077040   0.000000
    133      1      1   0.000000   4.480713   4.525167   0.000000
     60      1      1   0.000000   5.633527   4.510533   0.000000
    191      1      1   0.000000   6.381902   5.473783   0.000000
     97      1      1   0.000000   6.926224   4.642589   0.000000
     50      1      1   0.000000  -7.083981   6.536184   0.000000
    152      1      1   0.000000  -5.591292   6.031781   0.000000
    177      1      1   0.000000  -5.947075   6.402826   0.000000
    106      1      1   0.000000  -5.101365   6.526925   0.000000
     15      1      1   0.000000  -3.817663   6.418709   0.000000
     34      1      1   0.000000  -2.302743   5.745790   0.000000
     16      1      1   0.000000  -0.618694   5.603644   0.000000
     57      1      1   0.000000   0.834894   6.108620   0.000000
     29      1      1   0.000000   3.278998   6.562776   0.000000
     17      1      1   0.000000   4.738779   5.748286   0.000000
    180      1      1   0.000000   5.838892   5.460914   0.000000
     10      1      1   0.000000   6.042499   6.586818   0.000000
     66      1      1   0.000000   7.254770   5.928255   0.000000
     64      1      1   0.000000  -5.922367   7.361759   0.000000
    120      1      1   0.000000  -4.821489   7.452045   0.000000
    194      1      1   0.000000  -4.109617   7.453570   0.000000
    162      1      1   0.000000  -3.644108   7.553397   0.000000
     12      1      1   0.000000  -2.529901   7.356568   0.000000
    141      1      1   0.000000  -1.374420   6.688866   0.000000
    143      1      1   0.000000  -1.255076   7.687124   0.000000
     41      1      1   0.000000  -0.123713   7.141739   0.000000
    142      1      1   0.000000   1.199958   7.182301   0.000000
    119      1      1   0.000000   1.956582   6.600495   0.000000
     62      1      1   0.000000   2.216188   7.721057   0.000000
    183      1      1   0.000000   3.909594   7.521708   0.000000
     96      1      1   0.000000   4.715473   7.197815   0.000000
    158      1      1   0.000000   6.498073   7.532617   0.000000
     91      1      1   0.000000   7.422669   7.280540   0.000000

Bond Coeffs # ['bondID', 'bondCoeff', 'd']

      1   0.435856   1.514707
      2   3.389539   0.543162
      3   0.381654   1.618695
      4   0.341752   1.710584
      5   0.338897   1.717775
      6   0.416862   1.548831
      7   0.839298   1.091545
      8   0.668447   1.223113
      9   0.921096   1.041952
     10   0.442375   1.503505
     11   0.411021   1.559796
     12   2.061022   0.696560
     13   1.146589   0.933891
     14   1.136336   0.938095
     15   0.966671   1.017093
     16   0.436989   1.512741
     17   0.596106   1.295204
     18   0.693967   1.200412
     19   0.645554   1.244611
     20   0.361641   1.662880
     21   0.583170   1.309491
     22   0.472024   1.455519
     23   0.538542   1.362668
     24   0.672186   1.219706
     25   0.870223   1.071975
     26   0.771710   1.138343
     27   1.167429   0.925518
     28   1.692469   0.768670
     29   0.579762   1.313334
     30   0.471025   1.457062
     31   0.425690   1.532687
     32   1.498889   0.816799
     33   0.371049   1.641664
     34   0.870142   1.072025
     35   0.392368   1.596442
     36   0.571379   1.322933
     37   0.804527   1.114884
     38   0.918136   1.043630
     39   2.018151   0.703920
     40   0.398581   1.583952
     41   0.880809   1.065514
     42   1.005932   0.997047
     43   1.479524   0.822127
     44   1.138023   0.937399
     45   0.838009   1.092385
     46   0.376619   1.629480
     47   0.675987   1.216273
     48   0.387848   1.605718
     49   0.603060   1.287715
     50   0.401545   1.578095
     51   1.076467   0.963828
     52   0.637594   1.252356
     53   0.440909   1.506002
     54   0.757951   1.148628
     55   2.067930   0.695396
     56   0.530330   1.373178
     57   0.405394   1.570584
     58   0.565175   1.330174
     59   0.812401   1.109468
     60   0.691722   1.202359
     61   0.438962   1.509338
     62   1.113480   0.947674
     63   1.565888   0.799134
     64   0.785786   1.128100
     65   0.763160   1.144701
     66   0.428705   1.527287
     67   0.370815   1.642182
     68   0.406552   1.568346
     69   0.843243   1.088989
     70   0.763677   1.144314
     71   0.384084   1.613567
     72   0.733026   1.167993
     73   0.589573   1.302361
     74   1.175119   0.922485
     75   0.747345   1.156750
     76   0.481967   1.440427
     77   0.486907   1.433102
     78   1.253519   0.893171
     79   0.459420   1.475349
     80   0.329647   1.741707
     81   0.342646   1.708350
     82   0.489761   1.428920
     83   0.750789   1.154094
     84   0.820658   1.103873
     85   0.591633   1.300092
     86   0.564191   1.331333
     87   0.666611   1.224796
     88   1.002651   0.998677
     89   0.791920   1.123723
     90   0.441596   1.504831
     91   0.520819   1.385660
     92   0.557636   1.339136
     93   0.587205   1.304984
     94   0.471033   1.457050
     95   0.474540   1.451656
     96   0.564440   1.331040
     97   0.472877   1.454206
     98   0.914704   1.045586
     99   1.142830   0.935426
    100   0.646585   1.243619
    101   0.606981   1.283550
    102   0.549570   1.348927
    103   0.367445   1.649697
    104   0.792231   1.123502
    105   1.010480   0.994801
    106   0.396788   1.587525
    107   0.529122   1.374745
    108   0.492769   1.424552
    109   0.839600   1.091349
    110   0.571361   1.322954
    111   0.990448   1.004811
    112   1.325649   0.868532
    113   3.401742   0.542187
    114   0.698985   1.196096
    115   0.907844   1.049529
    116   0.417117   1.548357
    117   0.370330   1.643257
    118   0.505577   1.406392
    119   0.490452   1.427913
    120   0.527879   1.376362
    121   0.815897   1.107089
    122   0.599444   1.291593
    123   0.757275   1.149141
    124   0.412106   1.557743
    125   0.786249   1.127768
    126   0.861380   1.077463
    127   0.425780   1.532525
    128   1.664220   0.775166
    129   0.407360   1.566789
    130   2.110509   0.688345
    131   1.722305   0.761982
    132   0.621156   1.268819
    133   0.668248   1.223295
    134   0.854916   1.081529
    135   1.086208   0.959497
    136   0.520669   1.385859
    137   0.856507   1.080524
    138   1.973307   0.711873
    139   0.587955   1.304151
    140   0.422312   1.538804
    141   1.069657   0.966892
    142   1.032584   0.984096
    143   0.619965   1.270038
    144   0.394501   1.592121
    145   0.523094   1.382644
    146   1.348799   0.861046
    147   0.977042   1.011681
    148   0.394025   1.593082
    149   0.823730   1.101812
    150   0.517687   1.389845
    151   0.503458   1.409348
    152   1.085947   0.959612
    153   0.932046   1.035813
    154   0.825850   1.100397
    155   0.620244   1.269751
    156   4.411817   0.476092
    157   1.155957   0.930099
    158   0.415850   1.550714
    159   0.475969   1.449475
    160   0.481823   1.440643
    161   0.460981   1.472850
    162   0.376217   1.630349
    163   0.578558   1.314700
    164   1.993273   0.708299
    165   0.907372   1.049802
    166   0.576553   1.316984
    167   0.332318   1.734696
    168   0.605284   1.285347
    169   1.792639   0.746885
    170   0.474390   1.451886
    171   2.781590   0.599589
    172   1.088826   0.958343
    173   1.071219   0.966186
    174   1.148845   0.932973
    175   0.656104   1.234564
    176   0.475810   1.449717
    177   0.552987   1.344753
    178   0.390603   1.600044
    179   0.520518   1.386061
    180   1.042065   0.979608
    181   0.562700   1.333096
    182   0.798565   1.119038
    183   0.637602   1.252349
    184   0.692673   1.201534
    185   0.468007   1.461752
    186   0.347082   1.697398
    187   0.948845   1.026602
    188   1.097628   0.954492
    189   0.864921   1.075256
    190   0.616965   1.273121
    191   0.702034   1.193496
    192   0.578759   1.314471
    193   0.630189   1.259693
    194   0.642177   1.247879
    195   0.912982   1.046571
    196   0.999846   1.000077
    197   0.527162   1.377298
    198   3.380934   0.543853
    199   0.604223   1.286475
    200   0.525402   1.379604
    201   0.612922   1.277313
    202   0.540245   1.360519
    203   0.530557   1.372884
    204   0.782031   1.130806
    205   1.097721   0.954452
    206   0.763469   1.144469
    207   0.550235   1.348112
    208   0.572435   1.321712
    209   1.875561   0.730188
    210   1.239466   0.898220
    211   0.634163   1.255739
    212   0.418938   1.544989
    213   0.404665   1.571999
    214   0.759185   1.147694
    215   0.917722   1.043865
    216   0.786101   1.127874
    217   0.311283   1.792348
    218   0.474201   1.452174
    219   0.496152   1.419687
    220   0.766404   1.142276
    221   0.546275   1.352989
    222   0.601406   1.289485
    223   1.150884   0.932146
    224   0.721325   1.177428
    225   0.911375   1.047494
    226   0.771610   1.138417
    227   1.735780   0.759019
    228   0.782750   1.130286
    229   1.057755   0.972316
    230   0.596934   1.294305
    231   0.495798   1.420194
    232   0.406391   1.568657
    233   0.567643   1.327280
    234   0.881991   1.064799
    235   0.684903   1.208330
    236   3.541476   0.531383
    237   1.086764   0.959251
    238   0.730302   1.170170
    239   4.308617   0.481760
    240   1.168775   0.924985
    241   3.992951   0.500441
    242   3.738504   0.517191
    243   0.561494   1.334527
    244   0.356175   1.675593
    245   1.065043   0.968984
    246   0.492376   1.425120
    247   3.996000   0.500250
    248   1.012996   0.993565
    249   0.760098   1.147004
    250   0.492387   1.425104
    251   0.472380   1.454970
    252   0.790648   1.124627
    253   0.320484   1.766431
    254   0.695477   1.199109
    255   0.902297   1.052750
    256   0.758934   1.147884
    257   0.781129   1.131459
    258   0.863132   1.076369
    259   0.685872   1.207476
    260   0.548772   1.349908
    261   0.496078   1.419794
    262   0.365575   1.653909
    263   0.705125   1.190877
    264   0.537505   1.363982
    265   1.023572   0.988418
    266   0.513032   1.396137
    267   0.737777   1.164226
    268   0.562677   1.333123
    269   3.841975   0.510179
    270   0.819615   1.104575
    271   0.454718   1.482958
    272   1.188004   0.917468
    273   0.568503   1.326275
    274   0.761303   1.146097
    275   0.401640   1.577907
    276   0.624177   1.265744
    277   1.343554   0.862725
    278   0.602554   1.288255
    279   3.127547   0.565455
    280   0.416177   1.550104
    281   0.799790   1.118180
    282   1.042897   0.979218
    283   4.059266   0.496337
    284   0.410462   1.560859
    285   0.395223   1.590665
    286   0.392591   1.595989
    287   0.516088   1.391997
    288   0.575550   1.318130
    289   1.570338   0.798001
    290   0.665831   1.225513
    291   0.381214   1.619628
    292   0.455933   1.480981
    293   1.145408   0.934372
    294   1.123929   0.943258
    295   0.720517   1.178088
    296   0.508951   1.401722
    297   0.668487   1.223076
    298   0.944677   1.028865
    299   0.412237   1.557495
    300   0.928222   1.037945
    301   0.504270   1.408214
    302   0.507528   1.403686
    303   0.627991   1.261895
    304   1.070460   0.966529
    305   0.867799   1.073471
    306   0.664331   1.226896
    307   0.379669   1.622921
    308   0.422225   1.538963
    309   0.405362   1.570646
    310   0.662407   1.228676
    311   0.773497   1.137027
    312   1.034065   0.983391
    313   0.675429   1.216774
    314   1.729851   0.760319
    315   1.076395   0.963861
    316   1.098694   0.954029
    317   0.472832   1.454275
    318   1.254537   0.892808
    319   0.729398   1.170894
    320   1.094470   0.955869
    321   0.362521   1.660861
    322   0.585392   1.307003
    323   1.186336   0.918113
    324   1.654109   0.777531
    325   0.590553   1.301279
    326   0.639951   1.250047
    327   0.989351   1.005367
    328   1.202579   0.911892
    329   0.758466   1.148238
    330   0.733374   1.167716
    331   3.146378   0.563760
    332   0.977964   1.011204
    333   0.770643   1.139130
    334   0.837661   1.092612
    335   0.592240   1.299425
    336   0.779285   1.132796
    337   0.593192   1.298381
    338   0.412909   1.556227
    339   0.559826   1.336514
    340   3.592943   0.527564
    341   0.619337   1.270680
    342   0.604628   1.286044
    343   0.766689   1.142064
    344   0.602167   1.288670
    345   0.567898   1.326981
    346   0.563331   1.332349
    347   0.721570   1.177228
    348   0.460464   1.473676
    349   0.593317   1.298244
    350   0.406881   1.567713
    351   0.509270   1.401283
    352   0.571811   1.322433
    353   0.632468   1.257421
    354   0.539930   1.360916
    355   0.730159   1.170284
    356   0.839858   1.091182
    357   0.433433   1.518934
    358   0.669140   1.222479
    359   0.689489   1.204305
    360   0.703079   1.192609
    361   0.468535   1.460929
    362   0.423809   1.536085
    363   0.990440   1.004814
    364   0.525524   1.379442
    365   3.635885   0.524439
    366   0.334076   1.730125
    367   0.738531   1.163632
    368   1.909939   0.723586
    369   0.929955   1.036977
    370   0.691543   1.202515
    371   0.378754   1.624881
    372   0.431842   1.521730
    373   0.525922   1.378921
    374   0.728346   1.171740
    375   0.709063   1.187565
    376   0.742124   1.160812
    377   0.696111   1.198562
    378   0.505479   1.406528
    379   0.485717   1.434856
    380   1.633835   0.782341
    381   0.377899   1.626717
    382   1.228721   0.902139
    383   1.179905   0.920611
    384   0.368644   1.647010
    385   0.535552   1.366467
    386   2.110793   0.688299
    387   0.623926   1.265999
    388   0.513355   1.395696
    389   0.536790   1.364891
    390   0.906054   1.050565
    391   0.560806   1.335345
    392   0.943032   1.029762
    393   0.419090   1.544707
    394   0.501829   1.411634
    395   0.758089   1.148523
    396   0.372808   1.637787
    397   1.000804   0.999598
    398   0.584488   1.308014
    399   1.060453   0.971078
    400   0.441774   1.504527
    401   0.544562   1.355115
    402   0.457511   1.478424
    403   0.476196   1.449129
    404   0.511885   1.397699
    405   1.726280   0.761105
    406   0.350112   1.690038
    407   0.633944   1.255957
    408   0.839974   1.091106
    409   0.514729   1.393833
    410   1.733588   0.759499
    411   4.503212   0.471236
    412   0.383033   1.615779
    413   1.103819   0.951812
    414   1.042691   0.979315
    415   0.985801   1.007176
    416   0.810749   1.110598
    417   0.399300   1.582525
    418   1.825268   0.740179
    419   1.169891   0.924543
    420   0.468406   1.461130
    421   0.637650   1.252302
    422   1.039370   0.980878
    423   0.799265   1.118548
    424   1.572039   0.797569
    425   0.363927   1.657649
    426   1.621986   0.785193
    427   0.460741   1.473233
    428   0.712267   1.184891
    429   0.433244   1.519266
    430   0.969281   1.015723
    431   1.193413   0.915387
    432   0.391671   1.597862
    433   0.422364   1.538708
    434   0.434851   1.516455
    435   1.296848   0.878123
    436   0.815522   1.107343
    437   0.436005   1.514447
    438   3.784206   0.514059
    439   0.395229   1.590654
    440   0.479918   1.443498
    441   0.425649   1.532760
    442   0.476496   1.448672
    443   0.505267   1.406823
    444   0.964131   1.018432
    445   0.426810   1.530674
    446   1.624530   0.784578
    447   1.051036   0.975419
    448   0.454222   1.483767
    449   0.461497   1.472026
    450   0.446984   1.495733
    451   1.869535   0.731363
    452   0.755828   1.150240
    453   0.419475   1.543999
    454   0.706200   1.189971
    455   0.549400   1.349135
    456   0.799516   1.118372
    457   0.657155   1.233576
    458   0.602050   1.288795
    459   0.622394   1.267557
    460   0.750799   1.154086
    461   0.521521   1.384726
    462   0.579205   1.313965
    463   0.532624   1.370217
    464   0.929750   1.037091
    465   0.535445   1.366604
    466   0.391730   1.597742
    467   0.706311   1.189877
    468   0.763875   1.144166
    469   0.865722   1.074758
    470   0.470930   1.457209
    471   0.483532   1.438095
    472   0.579909   1.313168
    473   0.570207   1.324291
    474   0.630288   1.259594
    475   0.984130   1.008031
    476   0.446100   1.497214
    477   3.016418   0.575777
    478   0.467934   1.461867
    479   0.585888   1.306450
    480   0.720151   1.178388
    481   0.716704   1.181218
    482   4.834621   0.454798
    483   3.951524   0.503058
    484   0.918438   1.043458
    485   0.768617   1.140631
    486   1.016753   0.991727
    487   0.471129   1.456901
    488   0.754598   1.151177
    489   0.497770   1.417377
    490   0.360720   1.665003
    491   0.731861   1.168922
    492   1.824411   0.740353
    493   0.600597   1.290352
    494   0.636749   1.253187
    495   0.609837   1.280540
    496   0.406900   1.567675
    497   0.565980   1.329228
    498   0.832690   1.095868
    499   0.752335   1.152908
    500   3.856577   0.509212
    501   3.691477   0.520475
    502   0.333461   1.731719
    503   1.217879   0.906145
    504   1.074247   0.964824
    505   0.646974   1.243244
    506   0.766312   1.142345
    507   0.676494   1.215817
    508   0.381420   1.619193
    509   0.754667   1.151124
    510   0.484178   1.437135
    511   1.062329   0.970221
    512   1.813781   0.742519
    513   1.138927   0.937027
    514   0.708708   1.187863
    515   0.638776   1.251197
    516   1.210831   0.908779
    517   1.187441   0.917686
    518   1.082270   0.961241
    519   3.047905   0.572795
    520   0.746164   1.157665
    521   1.586330   0.793969
    522   0.658291   1.232512
    523   1.881578   0.729019
    524   0.842540   1.089444
    525   0.476771   1.448255
    526   0.777568   1.134046
    527   1.667784   0.774337
    528   0.771630   1.138401
    529   0.556202   1.340861
    530   0.901541   1.053191
    531   3.297682   0.550675
    532   0.514560   1.394062
    533   0.789820   1.125216
    534   1.142217   0.935676
    535   0.755868   1.150209
    536   0.852921   1.082793
    537   0.329552   1.741960
    538   0.608573   1.281869
    539   0.568638   1.326118
    540   0.907116   1.049950
    541   0.527001   1.377509
    542   0.582770   1.309940
    543   0.932426   1.035602
    544   1.705569   0.765712