ITEM: TIMESTEP
0
ITEM: NUMBER OF ATOMS
200
ITEM: BOX BOUNDS pp pp pp
-3.0000000000000000e+01 3.0000000000000000e+01
-3.0000000000000000e+01 3.0000000000000000e+01
-1.0000000000000001e-01 1.0000000000000001e-01
ITEM: ATOMS id type xs ys zs
18 1 0.125365 0.0158677 0.5
64 2 0.147498 0.00141419 0.5
190 4 0.259595 0.00850563 0.5
164 4 0.294996 0.00282838 0.5
161 4 0.618612 0.0180916 0.5
61 2 0.809306 0.00904579 0.5
155 4 0.890642 0.0134233 0.5
68 2 0.250731 0.0317354 0.5
32 1 0.414293 0.0268763 0.5
153 4 0.530554 0.0256419 0.5
118 3 0.376096 0.0476031 0.5
135 3 0.451005 0.0440386 0.5
151 4 0.641283 0.0487922 0.5
82 2 0.828587 0.0537526 0.5
168 4 0.501462 0.0634708 0.5
74 2 0.830789 0.074608 0.5
167 4 0.046057 0.0808182 0.5
149 3 0.213191 0.0960171 0.5
132 3 0.24288 0.0806289 0.5
13 1 0.266145 0.0907329 0.5
48 1 0.885648 0.0921736 0.5
181 4 0.363961 0.0983526 0.5
78 2 0.496585 0.109168 0.5
182 4 0.657173 0.107505 0.5
88 2 0.910818 0.112292 0.5
200 4 0.540437 0.132613 0.5
130 3 0.638255 0.14413 0.5
174 4 0.661578 0.149216 0.5
9 1 0.359265 0.166507 0.5
72 2 0.0265474 0.182227 0.5
25 1 0.287212 0.178328 0.5
63 2 0.532289 0.181466 0.5
98 2 0.771297 0.184347 0.5
102 3 0.142394 0.208246 0.5
176 4 0.286619 0.209623 0.5
45 1 0.389314 0.20325 0.5
188 4 0.821635 0.224585 0.5
171 4 0.93278 0.225287 0.5
139 3 0.949915 0.2263 0.5
178 4 0.993171 0.218335 0.5
4 1 0.365339 0.247039 0.5
8 1 0.477732 0.237774 0.5
44 1 0.803073 0.247842 0.5
147 3 0.84246 0.230939 0.5
33 1 0.937897 0.239911 0.5
56 2 0.145372 0.263269 0.5
105 3 0.167981 0.260068 0.5
40 1 0.564899 0.252126 0.5
69 2 0.736494 0.259087 0.5
31 1 0.0909903 0.274588 0.5
148 3 0.656945 0.276521 0.5
146 3 0.70502 0.279492 0.5
101 3 0.730962 0.286594 0.5
113 3 0.798434 0.272199 0.5
192 4 0.799029 0.276999 0.5
103 3 0.897916 0.269231 0.5
21 1 0.233195 0.306322 0.5
93 2 0.253424 0.302507 0.5
42 1 0.199757 0.31925 0.5
117 3 0.284543 0.310614 0.5
107 3 0.81813 0.309234 0.5
59 2 0.71853 0.333014 0.5
172 4 0.0530948 0.364454 0.5
49 1 0.0710636 0.365339 0.5
163 4 0.064578 0.362932 0.5
85 2 0.30067 0.362692 0.5
150 3 0.405328 0.34946 0.5
75 2 0.574425 0.356655 0.5
187 4 0.348746 0.382303 0.5
179 4 0.499397 0.368158 0.5
198 4 0.542593 0.368695 0.5
173 4 0.648323 0.366043 0.5
126 3 0.714964 0.407217 0.5
95 2 0.778628 0.406501 0.5
47 1 0.947487 0.410313 0.5
39 1 0.983305 0.408767 0.5
7 1 0.27271 0.436411 0.5
80 2 0.425503 0.42942 0.5
46 1 0.901673 0.426497 0.5
199 4 0.284254 0.461356 0.5
52 2 0.094929 0.472164 0.5
83 2 0.875795 0.479822 0.5
58 2 0.955464 0.475549 0.5
109 3 0.0777949 0.499522 0.5
136 3 0.163176 0.499223 0.5
36 1 0.387725 0.499741 0.5
27 1 0.53445 0.49848 0.5
94 2 0.606146 0.495684 0.5
127 3 0.60335 0.49544 0.5
54 2 0.730677 0.494078 0.5
14 1 0.0737491 0.500707 0.5
90 2 0.129797 0.504253 0.5
114 3 0.221247 0.502121 0.5
53 2 0.265277 0.512821 0.5
55 2 0.445321 0.506712 0.5
169 4 0.472989 0.518174 0.5
111 3 0.713959 0.513569 0.5
11 1 0.904653 0.504523 0.5
123 3 0.236242 0.524532 0.5
156 4 0.290744 0.526539 0.5
24 1 0.415395 0.537304 0.5
137 3 0.76156 0.536727 0.5
51 2 0.820642 0.524396 0.5
125 3 0.861637 0.534983 0.5
129 3 0.874548 0.526119 0.5
81 2 0.181981 0.549176 0.5
184 4 0.270158 0.547963 0.5
67 2 0.523029 0.540409 0.5
28 1 0.748293 0.554584 0.5
38 1 0.955409 0.556146 0.5
100 2 0.270219 0.566306 0.5
22 1 0.513274 0.591114 0.5
76 2 0.14331 0.604811 0.5
145 3 0.167943 0.609751 0.5
124 3 0.246184 0.611912 0.5
71 2 0.46639 0.612644 0.5
193 4 0.506849 0.605015 0.5
6 1 0.0726859 0.631635 0.5
19 1 0.868247 0.629543 0.5
43 1 0.126712 0.651254 0.5
92 2 0.399514 0.638499 0.5
160 4 0.590625 0.636832 0.5
197 4 0.789947 0.641252 0.5
189 4 0.93322 0.635067 0.5
165 4 0.108327 0.65527 0.5
128 3 0.244878 0.663752 0.5
159 4 0.43706 0.666029 0.5
138 3 0.866226 0.668438 0.5
134 3 0.952619 0.660972 0.5
35 1 0.150335 0.681346 0.5
87 2 0.174373 0.691151 0.5
79 2 0.249699 0.684079 0.5
73 2 0.824162 0.683021 0.5
196 4 0.606694 0.70599 0.5
99 2 0.142127 0.730678 0.5
175 4 0.148849 0.713311 0.5
30 1 0.212752 0.71471 0.5
108 3 0.433195 0.713323 0.5
185 4 0.60134 0.725385 0.5
110 3 0.692969 0.727624 0.5
133 3 0.813692 0.719732 0.5
2 1 0.0474645 0.736082 0.5
104 3 0.096016 0.741117 0.5
157 4 0.0908399 0.745646 0.5
144 3 0.409219 0.743525 0.5
115 3 0.831245 0.741452 0.5
3 1 0.632639 0.75641 0.5
140 3 0.694696 0.756379 0.5
5 1 0.72266 0.753356 0.5
166 4 0.857783 0.76392 0.5
1 1 0.910321 0.762198 0.5
50 1 0.135109 0.783153 0.5
122 3 0.539821 0.773341 0.5
84 2 0.635079 0.773981 0.5
17 1 0.761514 0.770205 0.5
26 1 0.571655 0.802406 0.5
131 3 0.272971 0.823764 0.5
116 3 0.393337 0.82294 0.5
195 4 0.557257 0.813001 0.5
60 2 0.795313 0.818416 0.5
97 2 0.894974 0.820626 0.5
89 2 0.96661 0.817533 0.5
23 1 0.412081 0.841511 0.5
65 2 0.554164 0.827635 0.5
37 1 0.587187 0.845576 0.5
29 1 0.624849 0.84204 0.5
191 4 0.856122 0.844381 0.5
96 2 0.803347 0.852995 0.5
180 4 0.851006 0.85884 0.5
141 3 0.392092 0.883285 0.5
57 2 0.54542 0.872823 0.5
66 2 0.928892 0.88196 0.5
106 3 0.218058 0.894904 0.5
34 1 0.31754 0.886991 0.5
119 3 0.604741 0.88863 0.5
15 1 0.277082 0.913817 0.5
121 3 0.699585 0.918965 0.5
10 1 0.897656 0.909208 0.5
91 2 0.928061 0.92219 0.5
16 1 0.464446 0.94098 0.5
152 4 0.189858 0.944328 0.5
162 4 0.276132 0.946568 0.5
143 3 0.380136 0.953761 0.5
41 1 0.464031 0.961095 0.5
142 3 0.599272 0.957749 0.5
183 4 0.751589 0.959643 0.5
158 4 0.910927 0.951098 0.5
112 3 0.957099 0.959926 0.5
62 2 0.638066 0.973284 0.5
77 2 0.0688997 0.99696 0.5
177 4 0.137799 0.99392 0.5
120 3 0.176236 0.998374 0.5
194 4 0.212292 0.991367 0.5
12 1 0.319033 0.986642 0.5
70 2 0.450824 0.998916 0.5
154 4 0.461355 0.988156 0.5
186 4 0.550901 0.998964 0.5
20 1 0.725412 0.999458 0.5
86 2 0.775451 0.999482 0.5
170 4 0.901648 0.997832 0.5
ITEM: TIMESTEP
100
ITEM: NUMBER OF ATOMS
200
ITEM: BOX BOUNDS pp pp pp
-8.9803631784875027e+00 8.9803631784875027e+00
-8.9803631784875027e+00 8.9803631784875027e+00
-1.0000000000000001e-01 1.0000000000000001e-01
ITEM: ATOMS id type xs ys zs
18 1 0.11041 0.0357356 0.5
64 2 0.160106 0.0014619 0.5
190 4 0.262183 0.00152906 0.5
164 4 0.288948 0.00697172 0.5
161 4 0.618133 0.0191073 0.5
61 2 0.817026 0.00391445 0.5
155 4 0.889119 0.0155809 0.5
68 2 0.246385 0.0310827 0.5
32 1 0.404248 0.0271179 0.5
153 4 0.530554 0.0256419 0.5
118 3 0.369302 0.0514968 0.5
135 3 0.458588 0.052687 0.5
151 4 0.641283 0.0487922 0.5
82 2 0.827955 0.043022 0.5
168 4 0.501655 0.0618116 0.5
74 2 0.825897 0.0905743 0.5
167 4 0.046057 0.0808182 0.5
149 3 0.204654 0.0991315 0.5
132 3 0.234659 0.0763855 0.5
13 1 0.283284 0.0985891 0.5
48 1 0.883872 0.086533 0.5
181 4 0.363982 0.0981684 0.5
78 2 0.495424 0.110202 0.5
182 4 0.657461 0.106992 0.5
88 2 0.921936 0.121341 0.5
200 4 0.54152 0.132002 0.5
130 3 0.633399 0.143657 0.5
174 4 0.666146 0.150203 0.5
9 1 0.35622 0.155815 0.5
72 2 0.0272948 0.181415 0.5
25 1 0.283271 0.173478 0.5
63 2 0.532567 0.180179 0.5
98 2 0.769845 0.180742 0.5
102 3 0.142336 0.20579 0.5
176 4 0.28658 0.21705 0.5
45 1 0.400888 0.202545 0.5
188 4 0.822399 0.216422 0.5
171 4 0.922649 0.212605 0.5
139 3 0.965171 0.21418 0.5
178 4 0.993757 0.21901 0.5
4 1 0.360283 0.257536 0.5
8 1 0.476303 0.238998 0.5
44 1 0.799022 0.23631 0.5
147 3 0.854467 0.230152 0.5
33 1 0.936988 0.261616 0.5
56 2 0.139042 0.264766 0.5
105 3 0.179125 0.256257 0.5
40 1 0.566729 0.25377 0.5
69 2 0.738102 0.246358 0.5
31 1 0.0840845 0.27552 0.5
148 3 0.654636 0.276367 0.5
146 3 0.694448 0.279121 0.5
101 3 0.737415 0.294269 0.5
113 3 0.793639 0.272116 0.5
192 4 0.799076 0.294721 0.5
103 3 0.892383 0.272483 0.5
21 1 0.22488 0.303858 0.5
93 2 0.267865 0.293749 0.5
42 1 0.182183 0.329859 0.5
117 3 0.297119 0.311226 0.5
107 3 0.821108 0.314897 0.5
59 2 0.717838 0.339322 0.5
172 4 0.0367491 0.364755 0.5
49 1 0.0979578 0.372216 0.5
163 4 0.0540568 0.356091 0.5
85 2 0.301783 0.364066 0.5
150 3 0.405328 0.34946 0.5
75 2 0.578584 0.355082 0.5
187 4 0.349408 0.382568 0.5
179 4 0.499397 0.368158 0.5
198 4 0.538434 0.370268 0.5
173 4 0.648323 0.366043 0.5
126 3 0.71407 0.407265 0.5
95 2 0.779521 0.406491 0.5
47 1 0.94218 0.403184 0.5
39 1 0.000462692 0.406131 0.5
7 1 0.268449 0.428191 0.5
80 2 0.426091 0.427783 0.5
46 1 0.891075 0.421007 0.5
199 4 0.288339 0.468203 0.5
52 2 0.101371 0.451065 0.5
83 2 0.86514 0.471413 0.5
58 2 0.962101 0.478188 0.5
109 3 0.0911713 0.500309 0.5
136 3 0.169789 0.494934 0.5
36 1 0.375312 0.491383 0.5
27 1 0.533505 0.487993 0.5
94 2 0.6282 0.497447 0.5
127 3 0.585426 0.493663 0.5
54 2 0.73518 0.480088 0.5
14 1 0.0408314 0.515694 0.5
90 2 0.133024 0.509957 0.5
114 3 0.214554 0.493989 0.5
53 2 0.271142 0.501392 0.5
55 2 0.451879 0.497702 0.5
169 4 0.477878 0.520598 0.5
111 3 0.703934 0.518373 0.5
11 1 0.916586 0.506871 0.5
123 3 0.231746 0.531557 0.5
156 4 0.296926 0.528278 0.5
24 1 0.414536 0.553296 0.5
137 3 0.769969 0.527656 0.5
51 2 0.814909 0.522534 0.5
125 3 0.85374 0.547118 0.5
129 3 0.87895 0.529003 0.5
81 2 0.183519 0.551881 0.5
184 4 0.270832 0.543023 0.5
67 2 0.522065 0.541918 0.5
28 1 0.742155 0.573696 0.5
38 1 0.958629 0.560855 0.5
100 2 0.273509 0.58006 0.5
22 1 0.524441 0.584909 0.5
76 2 0.135197 0.593087 0.5
145 3 0.181363 0.610569 0.5
124 3 0.244272 0.613323 0.5
71 2 0.459065 0.615835 0.5
193 4 0.503595 0.616972 0.5
6 1 0.0594312 0.627036 0.5
19 1 0.870396 0.618714 0.5
43 1 0.128451 0.645361 0.5
92 2 0.396718 0.638213 0.5
160 4 0.590625 0.636832 0.5
197 4 0.789564 0.640779 0.5
189 4 0.931924 0.633186 0.5
165 4 0.0972204 0.659639 0.5
128 3 0.242568 0.651147 0.5
159 4 0.438287 0.666879 0.5
138 3 0.870743 0.675588 0.5
134 3 0.954042 0.662874 0.5
35 1 0.144546 0.674873 0.5
87 2 0.190697 0.687783 0.5
79 2 0.261149 0.690816 0.5
73 2 0.819528 0.679144 0.5
196 4 0.606359 0.701951 0.5
99 2 0.138567 0.743618 0.5
175 4 0.14912 0.714068 0.5
30 1 0.218651 0.729915 0.5
108 3 0.435606 0.710353 0.5
185 4 0.597054 0.724719 0.5
110 3 0.688376 0.7149 0.5
133 3 0.8079 0.720077 0.5
2 1 0.0384783 0.734723 0.5
104 3 0.102161 0.731916 0.5
157 4 0.0852466 0.753989 0.5
144 3 0.406803 0.746569 0.5
115 3 0.834996 0.746538 0.5
3 1 0.632305 0.738019 0.5
140 3 0.686238 0.764235 0.5
5 1 0.729673 0.751478 0.5
166 4 0.857601 0.765471 0.5
1 1 0.912638 0.756075 0.5
50 1 0.136865 0.794148 0.5
122 3 0.533066 0.767062 0.5
84 2 0.6414 0.788653 0.5
17 1 0.769501 0.77167 0.5
26 1 0.581423 0.778099 0.5
131 3 0.272864 0.823631 0.5
116 3 0.383793 0.813892 0.5
195 4 0.548535 0.807681 0.5
60 2 0.796724 0.813423 0.5
97 2 0.893053 0.822714 0.5
89 2 0.9696 0.817066 0.5
23 1 0.4246 0.844572 0.5
65 2 0.532688 0.837929 0.5
37 1 0.592301 0.854958 0.5
29 1 0.646158 0.844351 0.5
191 4 0.855934 0.841675 0.5
96 2 0.803809 0.863375 0.5
180 4 0.850982 0.862232 0.5
141 3 0.389943 0.888997 0.5
57 2 0.536558 0.885173 0.5
66 2 0.93709 0.869965 0.5
106 3 0.215197 0.893974 0.5
34 1 0.325733 0.881312 0.5
119 3 0.606044 0.899559 0.5
15 1 0.269883 0.91196 0.5
121 3 0.699585 0.918965 0.5
10 1 0.876449 0.908166 0.5
91 2 0.940207 0.928096 0.5
16 1 0.465371 0.91379 0.5
152 4 0.189858 0.944328 0.5
162 4 0.275498 0.953155 0.5
143 3 0.38156 0.95292 0.5
41 1 0.470242 0.961254 0.5
142 3 0.594062 0.955691 0.5
183 4 0.752259 0.955927 0.5
158 4 0.909527 0.957977 0.5
112 3 0.95994 0.963911 0.5
62 2 0.64333 0.974194 0.5
77 2 0.0634832 0.994463 0.5
177 4 0.13168 0.978813 0.5
120 3 0.18806 0.996466 0.5
194 4 0.214144 0.990736 0.5
12 1 0.326363 0.984495 0.5
70 2 0.445775 0.0103335 0.5
154 4 0.468708 0.991496 0.5
186 4 0.550901 0.998964 0.5
20 1 0.715843 0.00193506 0.5
86 2 0.773235 0.997352 0.5
170 4 0.903171 0.995674 0.5
ITEM: TIMESTEP
200
ITEM: NUMBER OF ATOMS
200
ITEM: BOX BOUNDS pp pp pp
-8.3455864364746386e+00 8.3455864364746386e+00
-8.3455864364746386e+00 8.3455864364746386e+00
-1.0000000000000001e-01 1.0000000000000001e-01
ITEM: ATOMS id type xs ys zs
18 1 0.100169 0.0608087 0.5
64 2 0.163234 0.00320512 0.5
190 4 0.265023 0.989485 0.5
164 4 0.284403 0.0124956 0.5
161 4 0.616651 0.0218039 0.5
61 2 0.831305 0.987535 0.5
155 4 0.886584 0.0184511 0.5
68 2 0.241274 0.0310055 0.5
32 1 0.392098 0.0280065 0.5
153 4 0.530434 0.0257996 0.5
118 3 0.355157 0.0610083 0.5
135 3 0.46771 0.0666796 0.5
151 4 0.641283 0.0487922 0.5
82 2 0.828763 0.0389904 0.5
168 4 0.504495 0.0575612 0.5
74 2 0.811911 0.112012 0.5
167 4 0.0454574 0.0811062 0.5
149 3 0.192015 0.10608 0.5
132 3 0.226391 0.0749226 0.5
13 1 0.300199 0.0983723 0.5
48 1 0.890456 0.0784981 0.5
181 4 0.364903 0.0953734 0.5
78 2 0.492275 0.113903 0.5
182 4 0.658269 0.10574 0.5
88 2 0.937955 0.135708 0.5
200 4 0.54543 0.129102 0.5
130 3 0.625747 0.143506 0.5
174 4 0.67299 0.151605 0.5
9 1 0.357974 0.145487 0.5
72 2 0.0316586 0.17777 0.5
25 1 0.270754 0.174564 0.5
63 2 0.53411 0.178614 0.5
98 2 0.765713 0.16565 0.5
102 3 0.142603 0.19958 0.5
176 4 0.287414 0.228777 0.5
45 1 0.415832 0.199212 0.5
188 4 0.829181 0.202115 0.5
171 4 0.914454 0.201645 0.5
139 3 0.97076 0.200018 0.5
178 4 0.998286 0.223659 0.5
4 1 0.355131 0.270015 0.5
8 1 0.475855 0.245563 0.5
44 1 0.797122 0.228797 0.5
147 3 0.871505 0.227951 0.5
33 1 0.945305 0.281685 0.5
56 2 0.134826 0.265899 0.5
105 3 0.191422 0.245403 0.5
40 1 0.572412 0.258698 0.5
69 2 0.727711 0.231522 0.5
31 1 0.0674737 0.277778 0.5
148 3 0.645473 0.27577 0.5
146 3 0.686532 0.279575 0.5
101 3 0.74734 0.30102 0.5
113 3 0.789683 0.277589 0.5
192 4 0.796057 0.310879 0.5
103 3 0.879067 0.278884 0.5
21 1 0.220923 0.302087 0.5
93 2 0.279136 0.2765 0.5
42 1 0.165304 0.348109 0.5
117 3 0.315244 0.313489 0.5
107 3 0.829654 0.325346 0.5
59 2 0.714946 0.349911 0.5
172 4 0.0241095 0.361747 0.5
49 1 0.115069 0.374896 0.5
163 4 0.0477212 0.347778 0.5
85 2 0.304521 0.365632 0.5
150 3 0.405319 0.349429 0.5
75 2 0.585622 0.352469 0.5
187 4 0.352643 0.383816 0.5
179 4 0.499327 0.368149 0.5
198 4 0.531473 0.372936 0.5
173 4 0.648323 0.366043 0.5
126 3 0.710358 0.408887 0.5
95 2 0.783382 0.40518 0.5
47 1 0.939787 0.388418 0.5
39 1 0.0225342 0.407679 0.5
7 1 0.258314 0.417043 0.5
80 2 0.427229 0.42035 0.5
46 1 0.873892 0.408125 0.5
199 4 0.298262 0.470878 0.5
52 2 0.105275 0.433782 0.5
83 2 0.848263 0.465126 0.5
58 2 0.974295 0.475227 0.5
109 3 0.09398 0.502187 0.5
136 3 0.175525 0.483793 0.5
36 1 0.357949 0.48198 0.5
27 1 0.529523 0.465785 0.5
94 2 0.647458 0.498317 0.5
127 3 0.57759 0.494023 0.5
54 2 0.73865 0.464407 0.5
14 1 0.0202855 0.527341 0.5
90 2 0.133956 0.517283 0.5
114 3 0.210896 0.481147 0.5
53 2 0.275858 0.492894 0.5
55 2 0.455095 0.485343 0.5
169 4 0.481977 0.525979 0.5
111 3 0.693534 0.523728 0.5
11 1 0.925483 0.506714 0.5
123 3 0.229387 0.539722 0.5
156 4 0.306513 0.533315 0.5
24 1 0.411101 0.566889 0.5
137 3 0.770818 0.520856 0.5
51 2 0.809604 0.518293 0.5
125 3 0.845204 0.561796 0.5
129 3 0.881801 0.534827 0.5
81 2 0.188343 0.557264 0.5
184 4 0.271944 0.540477 0.5
67 2 0.521055 0.540095 0.5
28 1 0.736395 0.596034 0.5
38 1 0.963037 0.577558 0.5
100 2 0.285544 0.591123 0.5
22 1 0.543679 0.589342 0.5
76 2 0.12184 0.573978 0.5
145 3 0.198221 0.612782 0.5
124 3 0.23836 0.611703 0.5
71 2 0.455092 0.621312 0.5
193 4 0.501804 0.631441 0.5
6 1 0.0361388 0.620187 0.5
19 1 0.873641 0.607076 0.5
43 1 0.126204 0.632573 0.5
92 2 0.385849 0.642065 0.5
160 4 0.590642 0.636849 0.5
197 4 0.78682 0.637144 0.5
189 4 0.930716 0.63005 0.5
165 4 0.0802157 0.668715 0.5
128 3 0.240849 0.643183 0.5
159 4 0.440589 0.668654 0.5
138 3 0.879768 0.686025 0.5
134 3 0.956931 0.666759 0.5
35 1 0.14337 0.672936 0.5
87 2 0.20742 0.681354 0.5
79 2 0.284395 0.695304 0.5
73 2 0.812529 0.67264 0.5
196 4 0.601735 0.690566 0.5
99 2 0.139837 0.758692 0.5
175 4 0.151472 0.717028 0.5
30 1 0.226459 0.758673 0.5
108 3 0.439977 0.706853 0.5
185 4 0.585405 0.718629 0.5
110 3 0.687114 0.695452 0.5
133 3 0.800794 0.719218 0.5
2 1 0.0230063 0.732133 0.5
104 3 0.0999737 0.719179 0.5
157 4 0.0816638 0.765144 0.5
144 3 0.402398 0.752058 0.5
115 3 0.840725 0.749279 0.5
3 1 0.640079 0.715786 0.5
140 3 0.68344 0.774111 0.5
5 1 0.733676 0.742983 0.5
166 4 0.858996 0.771726 0.5
1 1 0.919659 0.742974 0.5
50 1 0.139014 0.817801 0.5
122 3 0.518188 0.759476 0.5
84 2 0.649568 0.799933 0.5
17 1 0.775118 0.776139 0.5
26 1 0.581115 0.761304 0.5
131 3 0.271949 0.822736 0.5
116 3 0.371067 0.803129 0.5
195 4 0.541865 0.803335 0.5
60 2 0.805338 0.813224 0.5
97 2 0.889522 0.821668 0.5
89 2 0.979856 0.811789 0.5
23 1 0.437486 0.837218 0.5
65 2 0.50733 0.837764 0.5
37 1 0.593733 0.859869 0.5
29 1 0.678483 0.854769 0.5
191 4 0.851496 0.83873 0.5
96 2 0.796923 0.878526 0.5
180 4 0.851451 0.863354 0.5
141 3 0.388994 0.898682 0.5
57 2 0.531863 0.906294 0.5
66 2 0.946334 0.863174 0.5
106 3 0.20502 0.890633 0.5
34 1 0.335446 0.871913 0.5
119 3 0.609752 0.917223 0.5
15 1 0.260389 0.908975 0.5
121 3 0.699977 0.919668 0.5
10 1 0.857687 0.915433 0.5
91 2 0.952964 0.928954 0.5
16 1 0.461576 0.891348 0.5
152 4 0.189855 0.94431 0.5
162 4 0.273905 0.963797 0.5
143 3 0.387731 0.948606 0.5
41 1 0.482441 0.955489 0.5
142 3 0.58381 0.955051 0.5
183 4 0.752021 0.947948 0.5
158 4 0.906379 0.966416 0.5
112 3 0.966559 0.976425 0.5
62 2 0.647844 0.972356 0.5
77 2 0.0534933 0.986626 0.5
177 4 0.123728 0.964262 0.5
120 3 0.200167 0.992123 0.5
194 4 0.222696 0.985537 0.5
12 1 0.331175 0.982055 0.5
70 2 0.442268 0.0193474 0.5
154 4 0.479878 1.00025 0.5
186 4 0.551022 0.998806 0.5
20 1 0.702878 0.00912947 0.5
86 2 0.769042 0.994592 0.5
170 4 0.905665 0.992667 0.5
ITEM: TIMESTEP
300
ITEM: NUMBER OF ATOMS
200
ITEM: BOX BOUNDS pp pp pp
-8.0912122338078252e+00 8.0912122338078252e+00
-8.0912122338078252e+00 8.0912122338078252e+00
-1.0000000000000001e-01 1.0000000000000001e-01
ITEM: ATOMS id type xs ys zs
18 1 0.0996903 0.0752958 0.5
64 2 0.153098 0.00605989 0.5
190 4 0.263805 0.982936 0.5
164 4 0.284886 0.0168318 0.5
161 4 0.615153 0.0241644 0.5
61 2 0.843754 0.975094 0.5
155 4 0.885007 0.0164261 0.5
68 2 0.241318 0.0342693 0.5
32 1 0.389463 0.0310762 0.5
153 4 0.529976 0.0263991 0.5
118 3 0.344212 0.0641837 0.5
135 3 0.467274 0.0731344 0.5
151 4 0.640488 0.0493438 0.5
82 2 0.825432 0.0448576 0.5
168 4 0.510371 0.0533183 0.5
74 2 0.807089 0.121631 0.5
167 4 0.0401942 0.08277 0.5
149 3 0.181681 0.11384 0.5
132 3 0.2209 0.0801188 0.5
13 1 0.297173 0.0905309 0.5
48 1 0.900361 0.0762516 0.5
181 4 0.370562 0.0923817 0.5
78 2 0.489609 0.120651 0.5
182 4 0.658802 0.104996 0.5
88 2 0.948278 0.144701 0.5
200 4 0.550702 0.124234 0.5
130 3 0.621676 0.143557 0.5
174 4 0.676528 0.152298 0.5
9 1 0.363521 0.149385 0.5
72 2 0.0388266 0.173224 0.5
25 1 0.255522 0.179018 0.5
63 2 0.537315 0.180327 0.5
98 2 0.755851 0.151818 0.5
102 3 0.143186 0.193007 0.5
176 4 0.291059 0.232143 0.5
45 1 0.424589 0.193602 0.5
188 4 0.840169 0.189045 0.5
171 4 0.912795 0.197046 0.5
139 3 0.96601 0.196192 0.5
178 4 0.00282704 0.230192 0.5
4 1 0.365049 0.270528 0.5
8 1 0.478544 0.258348 0.5
44 1 0.800823 0.228107 0.5
147 3 0.881331 0.223189 0.5
33 1 0.955236 0.287197 0.5
56 2 0.134659 0.266224 0.5
105 3 0.198108 0.231653 0.5
40 1 0.575123 0.26163 0.5
69 2 0.712702 0.223996 0.5
31 1 0.0505181 0.2792 0.5
148 3 0.637934 0.275824 0.5
146 3 0.688323 0.284072 0.5
101 3 0.749032 0.302352 0.5
113 3 0.791053 0.283821 0.5
192 4 0.792189 0.321487 0.5
103 3 0.868121 0.285159 0.5
21 1 0.223759 0.306533 0.5
93 2 0.279447 0.265185 0.5
42 1 0.167685 0.358872 0.5
117 3 0.323619 0.319227 0.5
107 3 0.837283 0.331793 0.5
59 2 0.710003 0.353151 0.5
172 4 0.0174025 0.352977 0.5
49 1 0.109002 0.367659 0.5
163 4 0.0485452 0.34234 0.5
85 2 0.307127 0.366263 0.5
150 3 0.404673 0.347434 0.5
75 2 0.5898 0.352816 0.5
187 4 0.358128 0.38591 0.5
179 4 0.497834 0.36789 0.5
198 4 0.52872 0.374719 0.5
173 4 0.648673 0.366132 0.5
126 3 0.703803 0.411656 0.5
95 2 0.78526 0.399315 0.5
47 1 0.943971 0.376974 0.5
39 1 0.0331711 0.415959 0.5
7 1 0.246221 0.409936 0.5
80 2 0.427279 0.410764 0.5
46 1 0.863614 0.395813 0.5
199 4 0.306344 0.463721 0.5
52 2 0.109707 0.439243 0.5
83 2 0.838891 0.465929 0.5
58 2 0.981227 0.46449 0.5
109 3 0.0849475 0.499032 0.5
136 3 0.17316 0.472773 0.5
36 1 0.35756 0.477173 0.5
27 1 0.5274 0.440884 0.5
94 2 0.649656 0.493866 0.5
127 3 0.58255 0.498567 0.5
54 2 0.737192 0.462944 0.5
14 1 0.0275438 0.528913 0.5
90 2 0.136057 0.514729 0.5
114 3 0.214121 0.475882 0.5
53 2 0.271529 0.494369 0.5
55 2 0.4495 0.482147 0.5
169 4 0.478207 0.529893 0.5
111 3 0.696523 0.5304 0.5
11 1 0.922784 0.499738 0.5
123 3 0.233748 0.542204 0.5
156 4 0.313306 0.53778 0.5
24 1 0.405573 0.562253 0.5
137 3 0.759133 0.52286 0.5
51 2 0.809999 0.516815 0.5
125 3 0.834134 0.567946 0.5
129 3 0.87985 0.535696 0.5
81 2 0.190296 0.55776 0.5
184 4 0.274249 0.542202 0.5
67 2 0.520367 0.53739 0.5
28 1 0.731705 0.60498 0.5
38 1 0.960253 0.589692 0.5
100 2 0.302613 0.593914 0.5
22 1 0.560465 0.600253 0.5
76 2 0.105727 0.565544 0.5
145 3 0.197824 0.61414 0.5
124 3 0.237847 0.602753 0.5
71 2 0.460551 0.623938 0.5
193 4 0.504088 0.641506 0.5
6 1 0.0277017 0.624921 0.5
19 1 0.874391 0.612507 0.5
43 1 0.120668 0.620576 0.5
92 2 0.373171 0.651578 0.5
160 4 0.592987 0.639413 0.5
197 4 0.783871 0.63136 0.5
189 4 0.930381 0.632616 0.5
165 4 0.0690222 0.676134 0.5
128 3 0.248168 0.647365 0.5
159 4 0.440327 0.669686 0.5
138 3 0.882663 0.688449 0.5
134 3 0.959583 0.669194 0.5
35 1 0.145391 0.673711 0.5
87 2 0.215167 0.685748 0.5
79 2 0.302685 0.697434 0.5
73 2 0.810893 0.66715 0.5
196 4 0.592423 0.679653 0.5
99 2 0.141003 0.766682 0.5
175 4 0.156689 0.721273 0.5
30 1 0.230686 0.775702 0.5
108 3 0.443412 0.708591 0.5
185 4 0.57512 0.706862 0.5
110 3 0.69412 0.676317 0.5
133 3 0.800058 0.71652 0.5
2 1 0.0170821 0.727658 0.5
104 3 0.0909943 0.714681 0.5
157 4 0.0797759 0.770886 0.5
144 3 0.400029 0.753128 0.5
115 3 0.845845 0.743988 0.5
3 1 0.645851 0.700605 0.5
140 3 0.687709 0.777549 0.5
5 1 0.732158 0.729147 0.5
166 4 0.861969 0.779117 0.5
1 1 0.9271 0.737279 0.5
50 1 0.138251 0.841616 0.5
122 3 0.503139 0.755403 0.5
84 2 0.647496 0.803841 0.5
17 1 0.770919 0.78701 0.5
26 1 0.575793 0.761995 0.5
131 3 0.272135 0.823967 0.5
116 3 0.361723 0.795345 0.5
195 4 0.540068 0.802463 0.5
60 2 0.815413 0.81804 0.5
97 2 0.893025 0.818688 0.5
89 2 0.990398 0.806448 0.5
23 1 0.431499 0.817556 0.5
65 2 0.505452 0.8281 0.5
37 1 0.589905 0.856611 0.5
29 1 0.702318 0.864419 0.5
191 4 0.846602 0.838927 0.5
96 2 0.782443 0.888578 0.5
180 4 0.851135 0.862595 0.5
141 3 0.389931 0.903407 0.5
57 2 0.540367 0.915987 0.5
66 2 0.948974 0.864905 0.5
106 3 0.191326 0.886526 0.5
34 1 0.338029 0.864932 0.5
119 3 0.615749 0.92361 0.5
15 1 0.255473 0.908041 0.5
121 3 0.703221 0.926368 0.5
10 1 0.861955 0.920604 0.5
91 2 0.957913 0.928212 0.5
16 1 0.452237 0.890666 0.5
152 4 0.189522 0.943077 0.5
162 4 0.271559 0.968331 0.5
143 3 0.396937 0.947235 0.5
41 1 0.489203 0.95782 0.5
142 3 0.574331 0.962183 0.5
183 4 0.750191 0.940158 0.5
158 4 0.905212 0.96726 0.5
112 3 0.971946 0.991499 0.5
62 2 0.645892 0.969336 0.5
77 2 0.0478256 0.98054 0.5
177 4 0.118694 0.957036 0.5
120 3 0.203201 0.9844 0.5
194 4 0.234841 0.975768 0.5
12 1 0.329696 0.975674 0.5
70 2 0.443168 0.0219633 0.5
154 4 0.490851 0.0107197 0.5
186 4 0.551273 0.998534 0.5
20 1 0.6974 0.0217369 0.5
86 2 0.766297 0.99289 0.5
170 4 0.907642 0.994015 0.5
ITEM: TIMESTEP
400
ITEM: NUMBER OF ATOMS
200
ITEM: BOX BOUNDS pp pp pp
-8.0040392641386475e+00 8.0040392641386475e+00
-8.0040392641386475e+00 8.0040392641386475e+00
-1.0000000000000001e-01 1.0000000000000001e-01
ITEM: ATOMS id type xs ys zs
18 1 0.100728 0.0848956 0.5
64 2 0.14378 0.00792156 0.5
190 4 0.261085 0.985785 0.5
164 4 0.288054 0.0191586 0.5
161 4 0.613648 0.0254684 0.5
61 2 0.84714 0.975866 0.5
155 4 0.883753 0.014406 0.5
68 2 0.236219 0.03222 0.5
32 1 0.389915 0.0339749 0.5
153 4 0.530493 0.0261943 0.5
118 3 0.337702 0.0614593 0.5
135 3 0.465023 0.0753743 0.5
151 4 0.636353 0.0518718 0.5
82 2 0.819751 0.0503701 0.5
168 4 0.513556 0.0523198 0.5
74 2 0.815194 0.12505 0.5
167 4 0.0324609 0.0841465 0.5
149 3 0.173058 0.121865 0.5
132 3 0.213671 0.0884317 0.5
13 1 0.289473 0.0911725 0.5
48 1 0.908687 0.0766832 0.5
181 4 0.376834 0.0927082 0.5
78 2 0.489716 0.126242 0.5
182 4 0.659006 0.104713 0.5
88 2 0.954216 0.144267 0.5
200 4 0.554813 0.119703 0.5
130 3 0.620136 0.14358 0.5
174 4 0.677852 0.15256 0.5
9 1 0.360097 0.156376 0.5
72 2 0.0431763 0.1709 0.5
25 1 0.246717 0.174944 0.5
63 2 0.540968 0.182914 0.5
98 2 0.739953 0.144899 0.5
102 3 0.143368 0.18762 0.5
176 4 0.29891 0.225263 0.5
45 1 0.435225 0.188572 0.5
188 4 0.850018 0.178569 0.5
171 4 0.915219 0.192771 0.5
139 3 0.965083 0.203779 0.5
178 4 0.00389774 0.231191 0.5
4 1 0.377217 0.266196 0.5
8 1 0.479968 0.273161 0.5
44 1 0.802727 0.224063 0.5
147 3 0.885605 0.222272 0.5
33 1 0.954175 0.28214 0.5
56 2 0.13641 0.267085 0.5
105 3 0.198703 0.224655 0.5
40 1 0.573895 0.261692 0.5
69 2 0.701678 0.218502 0.5
31 1 0.0441911 0.275666 0.5
148 3 0.638236 0.277034 0.5
146 3 0.690637 0.288644 0.5
101 3 0.74607 0.300624 0.5
113 3 0.796923 0.289492 0.5
192 4 0.789726 0.331865 0.5
103 3 0.865642 0.285698 0.5
21 1 0.226786 0.308526 0.5
93 2 0.278775 0.264528 0.5
42 1 0.173383 0.366262 0.5
117 3 0.327081 0.320745 0.5
107 3 0.837584 0.331936 0.5
59 2 0.705225 0.353111 0.5
172 4 0.0127088 0.346402 0.5
49 1 0.0983987 0.354636 0.5
163 4 0.0463813 0.342274 0.5
85 2 0.30936 0.37066 0.5
150 3 0.403153 0.342871 0.5
75 2 0.590656 0.356033 0.5
187 4 0.364326 0.388258 0.5
179 4 0.49494 0.366974 0.5
198 4 0.529651 0.371801 0.5
173 4 0.649425 0.366862 0.5
126 3 0.695665 0.415033 0.5
95 2 0.779743 0.39213 0.5
47 1 0.949509 0.372994 0.5
39 1 0.0371138 0.418523 0.5
7 1 0.240673 0.409008 0.5
80 2 0.428894 0.403457 0.5
46 1 0.864666 0.390439 0.5
199 4 0.306812 0.453322 0.5
52 2 0.116505 0.443836 0.5
83 2 0.835471 0.464856 0.5
58 2 0.982066 0.456868 0.5
109 3 0.0762741 0.491356 0.5
136 3 0.171678 0.461221 0.5
36 1 0.36252 0.472597 0.5
27 1 0.528767 0.428633 0.5
94 2 0.64889 0.48643 0.5
127 3 0.584483 0.501925 0.5
54 2 0.73557 0.465562 0.5
14 1 0.0280639 0.527844 0.5
90 2 0.141396 0.511868 0.5
114 3 0.215438 0.478665 0.5
53 2 0.271736 0.494571 0.5
55 2 0.448198 0.482507 0.5
169 4 0.469763 0.533528 0.5
111 3 0.699515 0.536018 0.5
11 1 0.921038 0.491279 0.5
123 3 0.238502 0.541743 0.5
156 4 0.317749 0.537848 0.5
24 1 0.400057 0.560544 0.5
137 3 0.748374 0.529719 0.5
51 2 0.808285 0.517829 0.5
125 3 0.821608 0.57328 0.5
129 3 0.876061 0.537967 0.5
81 2 0.185771 0.553193 0.5
184 4 0.279586 0.547853 0.5
67 2 0.521103 0.532775 0.5
28 1 0.726852 0.605457 0.5
38 1 0.956039 0.585214 0.5
100 2 0.315736 0.597062 0.5
22 1 0.568383 0.605355 0.5
76 2 0.0930273 0.562005 0.5
145 3 0.194095 0.61918 0.5
124 3 0.244253 0.59555 0.5
71 2 0.464854 0.622256 0.5
193 4 0.510366 0.649362 0.5
6 1 0.0286234 0.632586 0.5
19 1 0.87317 0.618429 0.5
43 1 0.114896 0.616042 0.5
92 2 0.370998 0.657184 0.5
160 4 0.600022 0.647075 0.5
197 4 0.783527 0.625103 0.5
189 4 0.929517 0.64104 0.5
165 4 0.0662164 0.678481 0.5
128 3 0.25997 0.649613 0.5
159 4 0.437142 0.67013 0.5
138 3 0.880779 0.687889 0.5
134 3 0.959636 0.670432 0.5
35 1 0.144747 0.675896 0.5
87 2 0.22074 0.696222 0.5
79 2 0.310441 0.702816 0.5
73 2 0.810727 0.66354 0.5
196 4 0.58316 0.671548 0.5
99 2 0.138324 0.771094 0.5
175 4 0.163865 0.726578 0.5
30 1 0.23102 0.779652 0.5
108 3 0.446943 0.712721 0.5
185 4 0.568259 0.696248 0.5
110 3 0.701324 0.658334 0.5
133 3 0.802382 0.718332 0.5
2 1 0.0201347 0.72557 0.5
104 3 0.0860779 0.717848 0.5
157 4 0.0774584 0.773158 0.5
144 3 0.396577 0.744998 0.5
115 3 0.848309 0.739989 0.5
3 1 0.641275 0.695014 0.5
140 3 0.69174 0.778229 0.5
5 1 0.733071 0.715508 0.5
166 4 0.863305 0.781372 0.5
1 1 0.929131 0.740268 0.5
50 1 0.130403 0.856848 0.5
122 3 0.490992 0.750547 0.5
84 2 0.64413 0.803634 0.5
17 1 0.764038 0.796625 0.5
26 1 0.573528 0.757642 0.5
131 3 0.275012 0.827975 0.5
116 3 0.350628 0.78713 0.5
195 4 0.54108 0.802683 0.5
60 2 0.819351 0.818152 0.5
97 2 0.901492 0.818771 0.5
89 2 0.99956 0.80715 0.5
23 1 0.42591 0.802168 0.5
65 2 0.507072 0.827402 0.5
37 1 0.590699 0.855229 0.5
29 1 0.707536 0.864989 0.5
191 4 0.847924 0.842419 0.5
96 2 0.777234 0.896085 0.5
180 4 0.851462 0.864513 0.5
141 3 0.386533 0.904415 0.5
57 2 0.545369 0.91216 0.5
66 2 0.950615 0.866282 0.5
106 3 0.183869 0.887321 0.5
34 1 0.337567 0.862092 0.5
119 3 0.620239 0.921217 0.5
15 1 0.251316 0.905667 0.5
121 3 0.705967 0.937735 0.5
10 1 0.871224 0.911711 0.5
91 2 0.962848 0.933814 0.5
16 1 0.449732 0.89135 0.5
152 4 0.187825 0.938935 0.5
162 4 0.27043 0.96656 0.5
143 3 0.405931 0.954238 0.5
41 1 0.490813 0.96361 0.5
142 3 0.573367 0.971841 0.5
183 4 0.748656 0.935713 0.5
158 4 0.908514 0.966434 0.5
112 3 0.974005 0.00412031 0.5
62 2 0.643825 0.970773 0.5
77 2 0.0470558 0.977824 0.5
177 4 0.115578 0.952575 0.5
120 3 0.202734 0.977149 0.5
194 4 0.242532 0.968268 0.5
12 1 0.330285 0.967545 0.5
70 2 0.446829 0.019888 0.5
154 4 0.501606 0.0222023 0.5
186 4 0.550107 0.00144014 0.5
20 1 0.697452 0.0377797 0.5
86 2 0.766674 0.988946 0.5
170 4 0.910424 0.997248 0.5
ITEM: TIMESTEP
500
ITEM: NUMBER OF ATOMS
200
ITEM: BOX BOUNDS pp pp pp
-7.9506003653122610e+00 7.9506003653122610e+00
-7.9506003653122610e+00 7.9506003653122610e+00
-1.0000000000000001e-01 1.0000000000000001e-01
ITEM: ATOMS id type xs ys zs
18 1 0.0978179 0.0919745 0.5
64 2 0.13769 0.00752295 0.5
190 4 0.2621 0.991853 0.5
164 4 0.291796 0.0207132 0.5
161 4 0.611407 0.0264638 0.5
61 2 0.845893 0.979638 0.5
155 4 0.883614 0.0154013 0.5
68 2 0.226671 0.0290206 0.5
32 1 0.389191 0.0377545 0.5
153 4 0.534224 0.0269936 0.5
118 3 0.333887 0.0578658 0.5
135 3 0.46397 0.0771473 0.5
151 4 0.630348 0.055061 0.5
82 2 0.814646 0.0535726 0.5
168 4 0.514429 0.0565114 0.5
74 2 0.824188 0.129568 0.5
167 4 0.0261064 0.0847202 0.5
149 3 0.167216 0.131085 0.5
132 3 0.206061 0.0949472 0.5
13 1 0.285065 0.0953463 0.5
48 1 0.912464 0.073816 0.5
181 4 0.38014 0.0965239 0.5
78 2 0.495259 0.125745 0.5
182 4 0.658688 0.105169 0.5
88 2 0.960866 0.141726 0.5
200 4 0.557033 0.117227 0.5
130 3 0.619493 0.143589 0.5
174 4 0.67642 0.153022 0.5
9 1 0.351229 0.16204 0.5
72 2 0.0451396 0.170622 0.5
25 1 0.243975 0.17112 0.5
63 2 0.544979 0.182959 0.5
98 2 0.730475 0.13883 0.5
102 3 0.142458 0.184681 0.5
176 4 0.307217 0.214684 0.5
45 1 0.4463 0.186763 0.5
188 4 0.858073 0.172648 0.5
171 4 0.918044 0.188432 0.5
139 3 0.965684 0.209367 0.5
178 4 0.0031268 0.227283 0.5