ITEM: TIMESTEP
0
ITEM: NUMBER OF ATOMS
400
ITEM: BOX BOUNDS pp pp pp
-3.0000000000000000e+01 3.0000000000000000e+01
-3.0000000000000000e+01 3.0000000000000000e+01
-1.0000000000000001e-01 1.0000000000000001e-01
ITEM: ATOMS id type xs ys zs
18 1 0.125365 0.0158677 0.5
114 2 0.147498 0.00141419 0.5
174 2 0.232701 0.00119008 0.5
340 4 0.259595 0.00850563 0.5
314 4 0.294996 0.00282838 0.5
266 3 0.466829 0.0030372 0.5
374 4 0.465401 0.00238017 0.5
74 1 0.61635 0.000595042 0.5
311 4 0.618612 0.0180916 0.5
391 4 0.784971 0.0117617 0.5
111 2 0.809306 0.00904579 0.5
274 3 0.849051 0.00178513 0.5
305 4 0.890642 0.0134233 0.5
200 2 0.176238 0.0361672 0.5
118 2 0.250731 0.0317354 0.5
32 1 0.414293 0.0268763 0.5
303 4 0.530554 0.0256419 0.5
276 3 0.253171 0.0474827 0.5
199 2 0.270664 0.0570965 0.5
218 3 0.376096 0.0476031 0.5
235 3 0.451005 0.0440386 0.5
394 4 0.469748 0.0502829 0.5
92 1 0.63343 0.0564407 0.5
301 4 0.641283 0.0487922 0.5
132 2 0.828587 0.0537526 0.5
400 4 0.352476 0.0723343 0.5
65 1 0.463323 0.0651939 0.5
318 4 0.501462 0.0634708 0.5
282 3 0.807644 0.0765069 0.5
124 2 0.830789 0.074608 0.5
317 4 0.046057 0.0808182 0.5
80 1 0.213547 0.0810608 0.5
249 3 0.213191 0.0960171 0.5
232 3 0.24288 0.0806289 0.5
13 1 0.266145 0.0907329 0.5
272 3 0.41995 0.0954742 0.5
168 2 0.780037 0.0878966 0.5
78 1 0.828708 0.0945488 0.5
48 1 0.885648 0.0921736 0.5
290 3 0.904152 0.0880219 0.5
89 1 0.233599 0.101637 0.5
192 2 0.26686 0.112881 0.5
331 4 0.363961 0.0983526 0.5
128 2 0.496585 0.109168 0.5
60 1 0.514435 0.103434 0.5
399 4 0.541329 0.114193 0.5
332 4 0.657173 0.107505 0.5
138 2 0.910818 0.112292 0.5
263 3 0.402161 0.119606 0.5
350 4 0.540437 0.132613 0.5
165 2 0.926645 0.130388 0.5
383 4 0.107463 0.135461 0.5
230 3 0.638255 0.14413 0.5
324 4 0.661578 0.149216 0.5
96 1 0.702989 0.143045 0.5
86 1 0.819726 0.136455 0.5
73 1 0.999117 0.153604 0.5
9 1 0.359265 0.166507 0.5
359 4 0.405079 0.157265 0.5
180 2 0.427094 0.162122 0.5
292 3 0.90029 0.169322 0.5
122 2 0.0265474 0.182227 0.5
195 2 0.107823 0.175978 0.5
25 1 0.287212 0.178328 0.5
275 3 0.320056 0.182005 0.5
113 2 0.532289 0.181466 0.5
368 4 0.560075 0.175793 0.5
87 1 0.60101 0.17688 0.5
178 2 0.657416 0.189098 0.5
148 2 0.771297 0.184347 0.5
160 2 0.0288693 0.206868 0.5
202 3 0.142394 0.208246 0.5
84 1 0.282156 0.193967 0.5
326 4 0.286619 0.209623 0.5
45 1 0.389314 0.20325 0.5
265 3 0.389968 0.195582 0.5
189 2 0.467198 0.203275 0.5
392 4 0.53372 0.225763 0.5
298 3 0.670507 0.21699 0.5
338 4 0.821635 0.224585 0.5
321 4 0.93278 0.225287 0.5
239 3 0.949915 0.2263 0.5
328 4 0.993171 0.218335 0.5
4 1 0.365339 0.247039 0.5
8 1 0.477732 0.237774 0.5
280 3 0.64064 0.243182 0.5
44 1 0.803073 0.247842 0.5
247 3 0.84246 0.230939 0.5
33 1 0.937897 0.239911 0.5
291 3 0.0887284 0.258821 0.5
106 2 0.145372 0.263269 0.5
205 3 0.167981 0.260068 0.5
179 2 0.52801 0.259144 0.5
40 1 0.564899 0.252126 0.5
119 2 0.736494 0.259087 0.5
370 4 0.784094 0.26293 0.5
365 4 0.853291 0.260775 0.5
31 1 0.0909903 0.274588 0.5
294 3 0.352311 0.287712 0.5
355 4 0.401575 0.270246 0.5
196 2 0.405979 0.286091 0.5
278 3 0.486124 0.283646 0.5
186 2 0.639452 0.27291 0.5
248 3 0.656945 0.276521 0.5
246 3 0.70502 0.279492 0.5
201 3 0.730962 0.286594 0.5
213 3 0.798434 0.272199 0.5
342 4 0.799029 0.276999 0.5
203 3 0.897916 0.269231 0.5
393 4 0.908031 0.275112 0.5
21 1 0.233195 0.306322 0.5
143 2 0.253424 0.302507 0.5
289 3 0.700798 0.304912 0.5
357 4 0.757321 0.29879 0.5
59 1 0.85127 0.289316 0.5
152 2 0.863349 0.303292 0.5
173 2 0.998233 0.307209 0.5
42 1 0.199757 0.31925 0.5
93 1 0.227008 0.318778 0.5
217 3 0.284543 0.310614 0.5
70 1 0.446023 0.315732 0.5
260 3 0.543304 0.310302 0.5
271 3 0.644512 0.319177 0.5
207 3 0.81813 0.309234 0.5
380 4 0.854187 0.324243 0.5
109 2 0.71853 0.333014 0.5
377 4 0.821048 0.34568 0.5
166 2 0.977886 0.335358 0.5
251 3 0.0485724 0.356901 0.5
322 4 0.0530948 0.364454 0.5
49 1 0.0710636 0.365339 0.5
313 4 0.064578 0.362932 0.5
187 2 0.20202 0.353761 0.5
395 4 0.215645 0.351956 0.5
135 2 0.30067 0.362692 0.5
283 3 0.330597 0.351596 0.5
250 3 0.405328 0.34946 0.5
125 2 0.574425 0.356655 0.5
72 1 0.80665 0.365158 0.5
176 2 0.835447 0.364988 0.5
378 4 0.314832 0.378195 0.5
337 4 0.348746 0.382303 0.5
329 4 0.499397 0.368158 0.5
182 2 0.538429 0.384338 0.5
348 4 0.542593 0.368695 0.5
323 4 0.648323 0.366043 0.5
190 2 0.269435 0.392015 0.5
184 2 0.564312 0.387935 0.5
360 4 0.0577387 0.413736 0.5
286 3 0.459178 0.409365 0.5
254 3 0.58258 0.413787 0.5
163 2 0.601441 0.413071 0.5
226 3 0.714964 0.407217 0.5
145 2 0.778628 0.406501 0.5
389 4 0.934397 0.40655 0.5
47 1 0.947487 0.410313 0.5
39 1 0.983305 0.408767 0.5
296 3 0.108968 0.429136 0.5
7 1 0.27271 0.436411 0.5
130 2 0.425503 0.42942 0.5
71 1 0.881504 0.439726 0.5
46 1 0.901673 0.426497 0.5
397 4 0.941301 0.440903 0.5
372 4 0.2266 0.460632 0.5
349 4 0.284254 0.461356 0.5
51 1 0.349524 0.4523 0.5
175 2 0.546704 0.45467 0.5
255 3 0.801181 0.452684 0.5
273 3 0.99735 0.460813 0.5
102 2 0.094929 0.472164 0.5
198 2 0.113672 0.477993 0.5
257 3 0.317991 0.474092 0.5
54 1 0.86086 0.471262 0.5
133 2 0.875795 0.479822 0.5
362 4 0.918991 0.477055 0.5
108 2 0.955464 0.475549 0.5
209 3 0.0777949 0.499522 0.5
236 3 0.163176 0.499223 0.5
36 1 0.387725 0.499741 0.5
27 1 0.53445 0.49848 0.5
144 2 0.606146 0.495684 0.5
227 3 0.60335 0.49544 0.5
104 2 0.730677 0.494078 0.5
379 4 0.0560194 0.518287 0.5
14 1 0.0737491 0.500707 0.5
140 2 0.129797 0.504253 0.5
214 3 0.221247 0.502121 0.5
103 2 0.265277 0.512821 0.5
361 4 0.306867 0.506263 0.5
191 2 0.392486 0.505881 0.5
105 2 0.445321 0.506712 0.5
319 4 0.472989 0.518174 0.5
100 1 0.588119 0.518084 0.5
277 3 0.615786 0.50926 0.5
211 3 0.713959 0.513569 0.5
11 1 0.904653 0.504523 0.5
99 1 0.135332 0.528548 0.5
194 2 0.234874 0.525141 0.5
223 3 0.236242 0.524532 0.5
306 4 0.290744 0.526539 0.5
24 1 0.415395 0.537304 0.5
237 3 0.76156 0.536727 0.5
287 3 0.80303 0.530641 0.5
101 2 0.820642 0.524396 0.5
225 3 0.861637 0.534983 0.5
229 3 0.874548 0.526119 0.5
364 4 0.0763696 0.544124 0.5
131 2 0.181981 0.549176 0.5
334 4 0.270158 0.547963 0.5
386 4 0.278904 0.54582 0.5
117 2 0.523029 0.540409 0.5
28 1 0.748293 0.554584 0.5
300 3 0.764357 0.554251 0.5
68 1 0.890019 0.543948 0.5
38 1 0.955409 0.556146 0.5
150 2 0.270219 0.566306 0.5
183 2 0.553732 0.56773 0.5
396 4 0.811958 0.572181 0.5
299 3 0.405997 0.585645 0.5
297 3 0.455976 0.580677 0.5
22 1 0.513274 0.591114 0.5
95 1 0.553911 0.587989 0.5
159 2 0.702539 0.578632 0.5
284 3 0.846468 0.581902 0.5
126 2 0.14331 0.604811 0.5
245 3 0.167943 0.609751 0.5
262 3 0.189243 0.607791 0.5
224 3 0.246184 0.611912 0.5
121 2 0.46639 0.612644 0.5
343 4 0.506849 0.605015 0.5
352 4 0.726698 0.606584 0.5
373 4 0.996467 0.614418 0.5
6 1 0.0726859 0.631635 0.5
268 3 0.670056 0.631845 0.5
261 3 0.73015 0.629697 0.5
79 1 0.764005 0.629572 0.5
19 1 0.868247 0.629543 0.5
170 2 0.892047 0.631465 0.5
43 1 0.126712 0.651254 0.5
155 2 0.200787 0.635123 0.5
142 2 0.399514 0.638499 0.5
193 2 0.454015 0.637556 0.5
310 4 0.590625 0.636832 0.5
353 4 0.718369 0.635688 0.5
347 4 0.789947 0.641252 0.5
157 2 0.878661 0.649395 0.5
52 1 0.931674 0.651646 0.5
339 4 0.93322 0.635067 0.5
264 3 0.0572772 0.658093 0.5
315 4 0.108327 0.65527 0.5
228 3 0.244878 0.663752 0.5
177 2 0.410524 0.67284 0.5
309 4 0.43706 0.666029 0.5
66 1 0.488943 0.667679 0.5
367 4 0.798219 0.666536 0.5
238 3 0.866226 0.668438 0.5
234 3 0.952619 0.660972 0.5
366 4 0.955773 0.670716 0.5
35 1 0.150335 0.681346 0.5
137 2 0.174373 0.691151 0.5
129 2 0.249699 0.684079 0.5
82 1 0.269215 0.692169 0.5
76 1 0.417724 0.682494 0.5
123 2 0.824162 0.683021 0.5
387 4 0.40404 0.707521 0.5
346 4 0.606694 0.70599 0.5
90 1 0.634717 0.696007 0.5
63 1 0.80072 0.706535 0.5
253 3 0.0387771 0.726766 0.5
149 2 0.142127 0.730678 0.5
325 4 0.148849 0.713311 0.5
30 1 0.212752 0.71471 0.5
208 3 0.433195 0.713323 0.5
172 2 0.6133 0.730316 0.5
335 4 0.60134 0.725385 0.5
376 4 0.670895 0.729977 0.5
210 3 0.692969 0.727624 0.5
75 1 0.773352 0.727335 0.5
233 3 0.813692 0.719732 0.5
197 2 0.97065 0.720451 0.5
2 1 0.0474645 0.736082 0.5
204 3 0.096016 0.741117 0.5
307 4 0.0908399 0.745646 0.5
244 3 0.409219 0.743525 0.5
162 2 0.459495 0.738527 0.5
98 1 0.556836 0.738997 0.5
267 3 0.598664 0.749902 0.5
215 3 0.831245 0.741452 0.5
382 4 0.076859 0.768676 0.5
94 1 0.117437 0.762571 0.5
161 2 0.153433 0.753131 0.5
371 4 0.526016 0.758902 0.5
3 1 0.632639 0.75641 0.5
295 3 0.661734 0.763967 0.5
91 1 0.696243 0.75294 0.5
240 3 0.694696 0.756379 0.5
5 1 0.72266 0.753356 0.5
316 4 0.857783 0.76392 0.5
1 1 0.910321 0.762198 0.5
164 2 0.0381848 0.772062 0.5
384 4 0.128624 0.77587 0.5
50 1 0.135109 0.783153 0.5
222 3 0.539821 0.773341 0.5
390 4 0.53887 0.784029 0.5
134 2 0.635079 0.773981 0.5
17 1 0.761514 0.770205 0.5
83 1 0.776866 0.783865 0.5
26 1 0.571655 0.802406 0.5
381 4 0.808639 0.79018 0.5
356 4 0.84898 0.80547 0.5
363 4 0.202881 0.826142 0.5
231 3 0.272971 0.823764 0.5
153 2 0.359185 0.817844 0.5
216 3 0.393337 0.82294 0.5
351 4 0.398097 0.809201 0.5
57 1 0.43933 0.824697 0.5
345 4 0.557257 0.813001 0.5
55 1 0.600394 0.817561 0.5
110 2 0.795313 0.818416 0.5
147 2 0.894974 0.820626 0.5
139 2 0.96661 0.817533 0.5
77 1 0.205262 0.83642 0.5
167 2 0.399109 0.833268 0.5
23 1 0.412081 0.841511 0.5
115 2 0.554164 0.827635 0.5
37 1 0.587187 0.845576 0.5
29 1 0.624849 0.84204 0.5
281 3 0.856479 0.842635 0.5
341 4 0.856122 0.844381 0.5
256 3 0.386735 0.854102 0.5
97 1 0.485325 0.860226 0.5
146 2 0.803347 0.852995 0.5
330 4 0.851006 0.85884 0.5
241 3 0.392092 0.883285 0.5
107 2 0.54542 0.872823 0.5
259 3 0.553809 0.867949 0.5
61 1 0.576717 0.876566 0.5
62 1 0.729748 0.869264 0.5
171 2 0.763008 0.879451 0.5
116 2 0.928892 0.88196 0.5
64 1 0.0190924 0.886031 0.5
206 3 0.218058 0.894904 0.5
279 3 0.292015 0.888716 0.5
34 1 0.31754 0.886991 0.5
354 4 0.443439 0.885049 0.5
219 3 0.604741 0.88863 0.5
181 2 0.904319 0.89509 0.5
156 2 0.92449 0.902735 0.5
375 4 0.0934081 0.90934 0.5
67 1 0.199555 0.916634 0.5
15 1 0.277082 0.913817 0.5
53 1 0.679592 0.908922 0.5
151 2 0.699048 0.9046 0.5
221 3 0.699585 0.918965 0.5
10 1 0.897656 0.909208 0.5
141 2 0.928061 0.92219 0.5
16 1 0.464446 0.94098 0.5
385 4 0.767295 0.932943 0.5
258 3 0.10662 0.961436 0.5
302 4 0.189858 0.944328 0.5
398 4 0.227343 0.955986 0.5
312 4 0.276132 0.946568 0.5
270 3 0.33807 0.947197 0.5
243 3 0.380136 0.953761 0.5
41 1 0.464031 0.961095 0.5
56 1 0.462245 0.951367 0.5
285 3 0.575472 0.949707 0.5
242 3 0.599272 0.957749 0.5
388 4 0.630925 0.951748 0.5
293 3 0.681023 0.956334 0.5
154 2 0.72172 0.942525 0.5
333 4 0.751589 0.959643 0.5
252 3 0.795023 0.954938 0.5
369 4 0.80139 0.95745 0.5
358 4 0.808827 0.948582 0.5
308 4 0.910927 0.951098 0.5
81 1 0.95216 0.947545 0.5
212 3 0.957099 0.959926 0.5
188 2 0.315462 0.975874 0.5
269 3 0.351042 0.968087 0.5
185 2 0.383648 0.966472 0.5
158 2 0.404413 0.974291 0.5
288 3 0.473194 0.963811 0.5
112 2 0.638066 0.973284 0.5
169 2 0.900695 0.978725 0.5
127 2 0.0688997 0.99696 0.5
327 4 0.137799 0.99392 0.5
88 1 0.157731 0.987937 0.5
85 1 0.191824 0.983236 0.5
220 3 0.176236 0.998374 0.5
344 4 0.212292 0.991367 0.5
12 1 0.319033 0.986642 0.5
69 1 0.450347 0.989362 0.5
120 2 0.450824 0.998916 0.5
304 4 0.461355 0.988156 0.5
336 4 0.550901 0.998964 0.5
58 1 0.702207 0.987145 0.5
20 1 0.725412 0.999458 0.5
136 2 0.775451 0.999482 0.5
320 4 0.901648 0.997832 0.5
ITEM: TIMESTEP
100
ITEM: NUMBER OF ATOMS
400
ITEM: BOX BOUNDS pp pp pp
-1.2769775138361457e+01 1.2769775138361457e+01
-1.2769775138361457e+01 1.2769775138361457e+01
-1.0000000000000001e-01 1.0000000000000001e-01
ITEM: ATOMS id type xs ys zs
18 1 0.112782 0.0269077 0.5
114 2 0.146564 0.0112017 0.5
174 2 0.234777 0.999506 0.5
340 4 0.263373 0.00602564 0.5
314 4 0.291498 0.00487987 0.5
266 3 0.488083 0.0169931 0.5
374 4 0.468106 0.00477728 0.5
74 1 0.611334 0.99878 0.5
311 4 0.619515 0.0244051 0.5
391 4 0.785446 0.0170478 0.5
111 2 0.813876 0.00814776 0.5
274 3 0.850856 0.00137346 0.5
305 4 0.890047 0.0144521 0.5
200 2 0.177375 0.0406467 0.5
118 2 0.247726 0.0260175 0.5
32 1 0.407834 0.0310924 0.5
303 4 0.530554 0.0256419 0.5
276 3 0.248237 0.0496245 0.5
199 2 0.283301 0.0554896 0.5
218 3 0.374031 0.0487178 0.5
235 3 0.448393 0.040095 0.5
394 4 0.47479 0.044267 0.5
92 1 0.627381 0.064911 0.5
301 4 0.647898 0.042251 0.5
132 2 0.830285 0.0407836 0.5
400 4 0.352474 0.0723374 0.5
65 1 0.462092 0.0763304 0.5
318 4 0.502356 0.0627026 0.5
282 3 0.799421 0.0736999 0.5
124 2 0.837816 0.0715422 0.5
317 4 0.046057 0.0808182 0.5
80 1 0.201287 0.0656227 0.5
249 3 0.204191 0.104201 0.5
232 3 0.242418 0.0736366 0.5
13 1 0.28076 0.0890449 0.5
272 3 0.420566 0.0940923 0.5
168 2 0.773848 0.0894579 0.5
78 1 0.832414 0.107811 0.5
48 1 0.875446 0.0900896 0.5
290 3 0.911962 0.0805672 0.5
89 1 0.23222 0.118852 0.5
192 2 0.272801 0.125053 0.5
331 4 0.363961 0.0983526 0.5
128 2 0.486672 0.114464 0.5
60 1 0.522322 0.0981583 0.5
399 4 0.544804 0.115079 0.5
332 4 0.657173 0.107505 0.5
138 2 0.911658 0.115471 0.5
263 3 0.400838 0.121358 0.5
350 4 0.541064 0.134289 0.5
165 2 0.932848 0.136591 0.5
383 4 0.107463 0.135453 0.5
230 3 0.637312 0.142977 0.5
324 4 0.662492 0.149481 0.5
96 1 0.703619 0.142949 0.5
86 1 0.818195 0.142297 0.5
73 1 0.995601 0.150133 0.5
9 1 0.357542 0.16107 0.5
359 4 0.401534 0.156449 0.5
180 2 0.431109 0.162042 0.5
292 3 0.900004 0.169689 0.5
122 2 0.029424 0.177824 0.5
195 2 0.107571 0.175751 0.5
25 1 0.287557 0.162973 0.5
275 3 0.324337 0.183341 0.5
113 2 0.530159 0.181903 0.5
368 4 0.561353 0.175329 0.5
87 1 0.600332 0.177336 0.5
178 2 0.656739 0.186225 0.5
148 2 0.771294 0.184346 0.5
160 2 0.0299378 0.21464 0.5
202 3 0.142645 0.20848 0.5
84 1 0.272541 0.200833 0.5
326 4 0.289495 0.218622 0.5
45 1 0.392292 0.216109 0.5
265 3 0.392625 0.184192 0.5
189 2 0.465808 0.198071 0.5
392 4 0.533431 0.224519 0.5
298 3 0.672501 0.220122 0.5
338 4 0.822115 0.221155 0.5
321 4 0.927709 0.218048 0.5
239 3 0.958728 0.219342 0.5
328 4 0.992741 0.218439 0.5
4 1 0.362705 0.247534 0.5
8 1 0.477616 0.241035 0.5
280 3 0.64047 0.239073 0.5
44 1 0.802808 0.238201 0.5
247 3 0.846527 0.230382 0.5
33 1 0.935733 0.252967 0.5
291 3 0.0873041 0.248601 0.5
106 2 0.140491 0.263769 0.5
205 3 0.174177 0.259193 0.5
179 2 0.524502 0.261442 0.5
40 1 0.570492 0.251504 0.5
119 2 0.739016 0.253579 0.5
370 4 0.777649 0.264049 0.5
365 4 0.853923 0.257142 0.5
31 1 0.0910991 0.285183 0.5
294 3 0.35163 0.289905 0.5
355 4 0.40056 0.264951 0.5
196 2 0.406055 0.290814 0.5
278 3 0.486597 0.285021 0.5
186 2 0.631132 0.275063 0.5
248 3 0.664887 0.278301 0.5
246 3 0.701205 0.276369 0.5
201 3 0.73319 0.290811 0.5
213 3 0.798692 0.273123 0.5
342 4 0.799604 0.287301 0.5
203 3 0.893155 0.266742 0.5
393 4 0.912097 0.278223 0.5
21 1 0.233481 0.290829 0.5
143 2 0.266527 0.296096 0.5
289 3 0.69762 0.306047 0.5
357 4 0.757961 0.299055 0.5
59 1 0.845905 0.282427 0.5
152 2 0.873006 0.309044 0.5
173 2 0.000908951 0.303507 0.5
42 1 0.182161 0.314443 0.5
93 1 0.229393 0.3315 0.5
217 3 0.288758 0.312045 0.5
70 1 0.447816 0.317333 0.5
260 3 0.543304 0.310302 0.5
271 3 0.644597 0.319652 0.5
207 3 0.815344 0.311165 0.5
380 4 0.852492 0.328846 0.5
109 2 0.720209 0.336028 0.5
377 4 0.822014 0.339794 0.5
166 2 0.975211 0.33906 0.5
251 3 0.0368464 0.348219 0.5
322 4 0.0476055 0.370153 0.5
49 1 0.0925128 0.371352 0.5
313 4 0.0603441 0.359901 0.5
187 2 0.193571 0.364034 0.5
395 4 0.221697 0.354223 0.5
135 2 0.296557 0.358874 0.5
283 3 0.333928 0.350408 0.5
250 3 0.405045 0.349688 0.5
125 2 0.577799 0.350587 0.5
72 1 0.797455 0.36655 0.5
176 2 0.845048 0.367304 0.5
378 4 0.317586 0.381298 0.5
337 4 0.348746 0.382303 0.5
329 4 0.499301 0.368101 0.5
182 2 0.528516 0.389791 0.5
348 4 0.542228 0.362424 0.5
323 4 0.648323 0.366043 0.5
190 2 0.267194 0.390337 0.5
184 2 0.567429 0.390254 0.5
360 4 0.0577387 0.413736 0.5
286 3 0.460686 0.408467 0.5
254 3 0.577112 0.417626 0.5
163 2 0.610832 0.41381 0.5
226 3 0.714964 0.407217 0.5
145 2 0.77726 0.408717 0.5
389 4 0.927688 0.403115 0.5
47 1 0.952566 0.408982 0.5
39 1 0.991057 0.408141 0.5
296 3 0.109321 0.427996 0.5
7 1 0.271334 0.436515 0.5
130 2 0.423995 0.430318 0.5
71 1 0.87577 0.435961 0.5
46 1 0.905943 0.421876 0.5
397 4 0.941111 0.443468 0.5
372 4 0.2266 0.460632 0.5
349 4 0.285897 0.464849 0.5
51 1 0.350784 0.448753 0.5
175 2 0.547582 0.451528 0.5
255 3 0.801048 0.452636 0.5
273 3 0.998189 0.460826 0.5
102 2 0.0889313 0.461619 0.5
198 2 0.122573 0.473029 0.5
257 3 0.315398 0.475904 0.5
54 1 0.844908 0.470444 0.5
133 2 0.881767 0.4853 0.5
362 4 0.919685 0.474272 0.5
108 2 0.956305 0.47575 0.5
209 3 0.0887797 0.499668 0.5
236 3 0.1677 0.497138 0.5
36 1 0.377525 0.486594 0.5
27 1 0.532614 0.496997 0.5
144 2 0.619751 0.483434 0.5
227 3 0.589973 0.486749 0.5
104 2 0.734081 0.49003 0.5
379 4 0.0525052 0.522547 0.5
14 1 0.057927 0.505106 0.5
140 2 0.129522 0.501913 0.5
214 3 0.21747 0.49567 0.5
103 2 0.270998 0.506869 0.5
361 4 0.306985 0.506265 0.5
191 2 0.397875 0.51374 0.5
105 2 0.447273 0.503119 0.5
319 4 0.47469 0.518934 0.5
100 1 0.578889 0.529608 0.5
277 3 0.627825 0.518171 0.5
211 3 0.710214 0.517146 0.5
11 1 0.913002 0.505329 0.5
99 1 0.133981 0.539553 0.5
194 2 0.221289 0.536745 0.5
223 3 0.246311 0.522263 0.5
306 4 0.292778 0.527438 0.5
24 1 0.418085 0.545799 0.5
237 3 0.764602 0.525396 0.5
287 3 0.796579 0.533063 0.5
101 2 0.825954 0.521401 0.5
225 3 0.853257 0.537972 0.5
229 3 0.872098 0.519597 0.5
364 4 0.0764756 0.544606 0.5
131 2 0.183242 0.550297 0.5
334 4 0.266824 0.544443 0.5
386 4 0.283657 0.542798 0.5
117 2 0.519558 0.539681 0.5
28 1 0.736248 0.559987 0.5
300 3 0.775228 0.559579 0.5
68 1 0.896946 0.556119 0.5
38 1 0.956207 0.556254 0.5
150 2 0.269148 0.574511 0.5
183 2 0.557441 0.558721 0.5
396 4 0.811958 0.572181 0.5
299 3 0.405717 0.586861 0.5
297 3 0.454986 0.577695 0.5
22 1 0.509676 0.586319 0.5
95 1 0.560156 0.599381 0.5
159 2 0.699839 0.579523 0.5
284 3 0.846044 0.580736 0.5
126 2 0.138331 0.601002 0.5
245 3 0.167801 0.610821 0.5
262 3 0.192732 0.60335 0.5
224 3 0.246084 0.612087 0.5
121 2 0.468358 0.610232 0.5
343 4 0.504017 0.612364 0.5
352 4 0.726546 0.605092 0.5
373 4 0.996467 0.614418 0.5
6 1 0.073169 0.626088 0.5
268 3 0.670056 0.631845 0.5
261 3 0.730049 0.629228 0.5
79 1 0.765602 0.628134 0.5
19 1 0.854628 0.618956 0.5
170 2 0.9025 0.623057 0.5
43 1 0.129846 0.646981 0.5
155 2 0.203034 0.639584 0.5
142 2 0.396996 0.632047 0.5
193 2 0.450414 0.6395 0.5
310 4 0.590625 0.636832 0.5
353 4 0.71405 0.637918 0.5
347 4 0.793258 0.64279 0.5
157 2 0.8805 0.659287 0.5
52 1 0.926362 0.65704 0.5
339 4 0.934659 0.627787 0.5
264 3 0.0546551 0.662678 0.5
315 4 0.102313 0.657227 0.5
228 3 0.2421 0.654892 0.5
177 2 0.401066 0.66645 0.5
309 4 0.441254 0.664004 0.5
66 1 0.49145 0.669943 0.5
367 4 0.796853 0.664522 0.5
238 3 0.863425 0.675977 0.5
234 3 0.958843 0.657995 0.5
366 4 0.959338 0.677966 0.5
35 1 0.146297 0.678639 0.5
137 2 0.181139 0.69133 0.5
129 2 0.24321 0.685143 0.5
82 1 0.281651 0.69779 0.5
76 1 0.423492 0.691559 0.5
123 2 0.829587 0.678053 0.5
387 4 0.401543 0.710939 0.5
346 4 0.603041 0.703656 0.5
90 1 0.64003 0.689548 0.5
63 1 0.794905 0.699666 0.5
253 3 0.0306348 0.718309 0.5
149 2 0.138709 0.727612 0.5
325 4 0.150339 0.711714 0.5
30 1 0.212975 0.719056 0.5
208 3 0.434243 0.715781 0.5
172 2 0.617788 0.728281 0.5
335 4 0.59477 0.7221 0.5
376 4 0.66744 0.728767 0.5
210 3 0.691925 0.716837 0.5
75 1 0.768434 0.724808 0.5
233 3 0.820057 0.725199 0.5
197 2 0.97065 0.720451 0.5
2 1 0.0541257 0.738063 0.5
204 3 0.0979122 0.731779 0.5
307 4 0.0838952 0.748936 0.5
244 3 0.408851 0.743978 0.5
162 2 0.461357 0.740289 0.5
98 1 0.556126 0.73358 0.5
267 3 0.592984 0.754764 0.5
215 3 0.833808 0.744656 0.5
382 4 0.0761757 0.769496 0.5
94 1 0.107035 0.760769 0.5
161 2 0.165084 0.753592 0.5
371 4 0.522857 0.757791 0.5
3 1 0.633858 0.750925 0.5
295 3 0.665072 0.765472 0.5
91 1 0.698136 0.745856 0.5
240 3 0.685763 0.772201 0.5
5 1 0.731411 0.752614 0.5
316 4 0.857797 0.763931 0.5
1 1 0.910422 0.761807 0.5
164 2 0.0363625 0.777584 0.5
384 4 0.127059 0.774372 0.5
50 1 0.144673 0.803193 0.5
222 3 0.538843 0.771093 0.5
390 4 0.536843 0.789192 0.5
134 2 0.634879 0.787011 0.5
17 1 0.756518 0.769461 0.5
83 1 0.782398 0.789281 0.5
26 1 0.575239 0.788257 0.5
381 4 0.812186 0.789252 0.5
356 4 0.84896 0.805406 0.5
363 4 0.200741 0.816903 0.5
231 3 0.272971 0.823764 0.5
153 2 0.353046 0.816187 0.5
216 3 0.385263 0.812894 0.5
351 4 0.399786 0.801354 0.5
57 1 0.449227 0.817224 0.5
345 4 0.553394 0.811102 0.5
55 1 0.606922 0.809389 0.5
110 2 0.796271 0.820405 0.5
147 2 0.895959 0.820511 0.5
139 2 0.966611 0.817532 0.5
77 1 0.207344 0.845451 0.5
167 2 0.39506 0.835456 0.5
23 1 0.426112 0.854866 0.5
115 2 0.542075 0.832551 0.5
37 1 0.588509 0.848157 0.5
29 1 0.637902 0.845939 0.5
281 3 0.858006 0.832017 0.5
341 4 0.85504 0.851222 0.5
256 3 0.37787 0.860278 0.5
97 1 0.486082 0.860847 0.5
146 2 0.805801 0.856584 0.5
330 4 0.849494 0.863185 0.5
241 3 0.391853 0.887103 0.5
107 2 0.528956 0.880592 0.5
259 3 0.553911 0.86301 0.5
61 1 0.5813 0.888556 0.5
62 1 0.72652 0.864308 0.5
171 2 0.767416 0.882255 0.5
116 2 0.938164 0.866483 0.5
64 1 0.0190924 0.886031 0.5
206 3 0.22208 0.890528 0.5
279 3 0.287979 0.883956 0.5
34 1 0.327164 0.884896 0.5
354 4 0.443409 0.885044 0.5
219 3 0.610644 0.892537 0.5
181 2 0.893968 0.880953 0.5
156 2 0.935558 0.901267 0.5
375 4 0.0934081 0.90934 0.5
67 1 0.196765 0.916991 0.5
15 1 0.271433 0.917963 0.5
53 1 0.661665 0.906679 0.5
151 2 0.706169 0.894254 0.5
221 3 0.703596 0.928242 0.5
10 1 0.87759 0.921494 0.5
141 2 0.931965 0.932122 0.5
16 1 0.468396 0.907678 0.5
385 4 0.767202 0.932851 0.5
258 3 0.106477 0.961396 0.5
302 4 0.188591 0.945894 0.5
398 4 0.227952 0.95556 0.5
312 4 0.276121 0.949219 0.5
270 3 0.338265 0.94112 0.5
243 3 0.377261 0.941534 0.5
41 1 0.462008 0.966549 0.5
56 1 0.450853 0.936475 0.5
285 3 0.572126 0.948602 0.5
242 3 0.600753 0.956769 0.5
388 4 0.629747 0.948182 0.5
293 3 0.678853 0.954517 0.5
154 2 0.726933 0.943713 0.5
333 4 0.752548 0.960198 0.5
252 3 0.785595 0.953502 0.5
369 4 0.806337 0.96193 0.5
358 4 0.813577 0.945204 0.5
308 4 0.910477 0.950716 0.5
81 1 0.955578 0.94338 0.5
212 3 0.961328 0.971032 0.5
188 2 0.307306 0.964263 0.5
269 3 0.352727 0.969798 0.5
185 2 0.380537 0.97305 0.5
158 2 0.408444 0.975575 0.5
288 3 0.496636 0.974678 0.5
112 2 0.643511 0.972743 0.5
169 2 0.899507 0.975758 0.5
127 2 0.0680912 0.996591 0.5
327 4 0.129041 0.987754 0.5
88 1 0.157354 0.96801 0.5
85 1 0.1985 0.973514 0.5
220 3 0.181728 0.00642173 0.5
344 4 0.213795 0.992452 0.5
12 1 0.323535 0.0014972 0.5
69 1 0.427262 0.983586 0.5
120 2 0.438147 0.0169981 0.5
304 4 0.471549 0.986712 0.5
336 4 0.550901 0.998964 0.5
58 1 0.694015 0.987746 0.5
20 1 0.732005 0.00533705 0.5
136 2 0.770547 0.993657 0.5
320 4 0.902407 0.00207811 0.5
ITEM: TIMESTEP
200
ITEM: NUMBER OF ATOMS
400
ITEM: BOX BOUNDS pp pp pp
-1.1770371746580997e+01 1.1770371746580997e+01
-1.1770371746580997e+01 1.1770371746580997e+01
-1.0000000000000001e-01 1.0000000000000001e-01
ITEM: ATOMS id type xs ys zs
18 1 0.0986612 0.0417906 0.5
114 2 0.144297 0.0174198 0.5
174 2 0.2406 0.993343 0.5
340 4 0.272818 0.00120986 0.5
314 4 0.28532 0.0066734 0.5
266 3 0.504935 0.0263086 0.5
374 4 0.470751 0.00914883 0.5
74 1 0.600344 0.000569041 0.5
311 4 0.622076 0.0323435 0.5
391 4 0.784308 0.0250907 0.5
111 2 0.81584 0.00113351 0.5
274 3 0.858123 0.997963 0.5
305 4 0.887798 0.0172488 0.5
200 2 0.17266 0.0458609 0.5
118 2 0.245 0.0226596 0.5
32 1 0.393615 0.0428179 0.5
303 4 0.531006 0.0256575 0.5
276 3 0.244418 0.0509811 0.5
199 2 0.298922 0.0475683 0.5
218 3 0.36649 0.0522905 0.5
235 3 0.452622 0.0406632 0.5
394 4 0.480427 0.0388824 0.5
92 1 0.621195 0.0763031 0.5
301 4 0.654889 0.0349841 0.5
132 2 0.832674 0.0318906 0.5
400 4 0.351708 0.0732552 0.5
65 1 0.45995 0.0850809 0.5
318 4 0.502766 0.0595225 0.5
282 3 0.793507 0.0676763 0.5
124 2 0.841853 0.0654965 0.5
317 4 0.046057 0.0808182 0.5
80 1 0.19282 0.0596233 0.5
249 3 0.191599 0.110649 0.5
232 3 0.240527 0.0751372 0.5
13 1 0.299713 0.0899252 0.5
272 3 0.418271 0.0922022 0.5
168 2 0.762882 0.0942492 0.5
78 1 0.8331 0.120051 0.5
48 1 0.873539 0.0864853 0.5
290 3 0.92273 0.0693988 0.5
89 1 0.226464 0.138319 0.5
192 2 0.277859 0.132906 0.5
331 4 0.363961 0.0983526 0.5
128 2 0.477966 0.127425 0.5
60 1 0.53165 0.0884386 0.5
399 4 0.552411 0.118603 0.5
332 4 0.65724 0.10757 0.5
138 2 0.910773 0.119785 0.5
263 3 0.398463 0.124063 0.5
350 4 0.541996 0.138497 0.5
165 2 0.942802 0.146046 0.5
383 4 0.107468 0.134839 0.5
230 3 0.635333 0.138441 0.5
324 4 0.663728 0.148836 0.5
96 1 0.706814 0.142022 0.5
86 1 0.813701 0.156153 0.5
73 1 0.990028 0.143678 0.5
9 1 0.35481 0.150251 0.5
359 4 0.397802 0.153313 0.5
180 2 0.436842 0.1587 0.5
292 3 0.898568 0.171084 0.5
122 2 0.0370234 0.172533 0.5
195 2 0.106455 0.17533 0.5
25 1 0.291801 0.154118 0.5
275 3 0.327209 0.190263 0.5
113 2 0.525577 0.182612 0.5
368 4 0.561917 0.174092 0.5
87 1 0.598465 0.179132 0.5
178 2 0.657199 0.184298 0.5
148 2 0.76851 0.183543 0.5
160 2 0.0320425 0.226491 0.5
202 3 0.14376 0.209494 0.5
84 1 0.257314 0.208801 0.5
326 4 0.296326 0.229105 0.5
45 1 0.402177 0.224702 0.5
265 3 0.395796 0.176203 0.5
189 2 0.466021 0.190941 0.5
392 4 0.533238 0.222786 0.5
298 3 0.677922 0.225297 0.5
338 4 0.826193 0.213446 0.5
321 4 0.923283 0.210803 0.5
239 3 0.966373 0.211082 0.5
328 4 0.992062 0.218705 0.5
4 1 0.352246 0.248051 0.5
8 1 0.473404 0.243327 0.5
280 3 0.639336 0.233239 0.5
44 1 0.795796 0.226837 0.5
247 3 0.85491 0.225835 0.5
33 1 0.940238 0.262965 0.5
291 3 0.0858798 0.23678 0.5
106 2 0.134804 0.261584 0.5
205 3 0.182978 0.256594 0.5
179 2 0.523304 0.265456 0.5
40 1 0.57846 0.249101 0.5
119 2 0.740996 0.244489 0.5
370 4 0.769248 0.266525 0.5
365 4 0.857283 0.250428 0.5
31 1 0.0880205 0.299075 0.5
294 3 0.350089 0.296171 0.5
355 4 0.400899 0.259353 0.5
196 2 0.402977 0.296222 0.5
278 3 0.487741 0.290027 0.5
186 2 0.620824 0.279525 0.5
248 3 0.670567 0.279469 0.5
246 3 0.698538 0.269578 0.5
201 3 0.735139 0.29558 0.5
213 3 0.796908 0.274699 0.5
342 4 0.798253 0.298362 0.5
203 3 0.886826 0.262252 0.5
393 4 0.913745 0.285434 0.5
21 1 0.228387 0.269449 0.5
143 2 0.280909 0.285679 0.5
289 3 0.691754 0.309107 0.5
357 4 0.76121 0.300037 0.5
59 1 0.841534 0.280877 0.5
152 2 0.887485 0.317022 0.5
173 2 0.00519333 0.29697 0.5
42 1 0.162595 0.310112 0.5
93 1 0.238193 0.33935 0.5
217 3 0.297788 0.316074 0.5
70 1 0.452704 0.322422 0.5
260 3 0.543206 0.310439 0.5
271 3 0.645279 0.321652 0.5
207 3 0.810672 0.316491 0.5
380 4 0.84859 0.33346 0.5
109 2 0.723643 0.343233 0.5
377 4 0.824862 0.334724 0.5
166 2 0.9708 0.344943 0.5
251 3 0.0265721 0.340162 0.5
322 4 0.0427518 0.376864 0.5
49 1 0.109734 0.375066 0.5
313 4 0.0583124 0.356628 0.5
187 2 0.18252 0.378531 0.5
395 4 0.225008 0.362973 0.5
135 2 0.29268 0.353341 0.5
283 3 0.340203 0.348736 0.5
250 3 0.403722 0.350649 0.5
125 2 0.583061 0.340492 0.5
72 1 0.787027 0.364023 0.5
176 2 0.856647 0.370677 0.5
378 4 0.321396 0.385497 0.5
337 4 0.34876 0.382348 0.5
329 4 0.497697 0.366553 0.5
182 2 0.515972 0.397143 0.5
348 4 0.541314 0.35567 0.5
323 4 0.648323 0.366043 0.5
190 2 0.261657 0.388007 0.5
184 2 0.570009 0.389288 0.5
360 4 0.0577272 0.413716 0.5
286 3 0.464105 0.406428 0.5
254 3 0.573438 0.425676 0.5
163 2 0.62439 0.414955 0.5
226 3 0.714964 0.407217 0.5
145 2 0.773141 0.415264 0.5
389 4 0.921862 0.394356 0.5
47 1 0.959793 0.404666 0.5
39 1 0.00739165 0.406028 0.5
296 3 0.111676 0.423111 0.5
7 1 0.268577 0.437898 0.5
130 2 0.420584 0.432345 0.5
71 1 0.864989 0.427746 0.5
46 1 0.906069 0.419918 0.5
397 4 0.940584 0.447479 0.5
372 4 0.22664 0.460363 0.5
349 4 0.288595 0.470209 0.5
51 1 0.349524 0.435899 0.5
175 2 0.547288 0.445716 0.5
255 3 0.797228 0.451487 0.5
273 3 0.00150583 0.461454 0.5
102 2 0.0776826 0.449537 0.5
198 2 0.135412 0.461783 0.5
257 3 0.313177 0.478432 0.5
54 1 0.827293 0.470749 0.5
133 2 0.886095 0.485715 0.5
362 4 0.920139 0.46698 0.5
108 2 0.961118 0.47589 0.5
209 3 0.0961012 0.503606 0.5
236 3 0.175557 0.494856 0.5
36 1 0.370372 0.47819 0.5
27 1 0.526886 0.492316 0.5
144 2 0.633509 0.470481 0.5
227 3 0.57845 0.478526 0.5
104 2 0.737757 0.482329 0.5
379 4 0.0485611 0.53467 0.5
14 1 0.0400574 0.501768 0.5
140 2 0.130866 0.502592 0.5
214 3 0.214182 0.488665 0.5
103 2 0.275152 0.496101 0.5
361 4 0.309146 0.507591 0.5
191 2 0.398818 0.518791 0.5
105 2 0.450878 0.494882 0.5
319 4 0.478396 0.521106 0.5
100 1 0.582197 0.535366 0.5
277 3 0.638354 0.527332 0.5
211 3 0.703328 0.520373 0.5
11 1 0.926212 0.510713 0.5
99 1 0.127941 0.55199 0.5
194 2 0.214581 0.547816 0.5
223 3 0.251089 0.521226 0.5
306 4 0.297927 0.5286 0.5
24 1 0.421576 0.555332 0.5
237 3 0.765915 0.514386 0.5
287 3 0.791988 0.535318 0.5
101 2 0.826141 0.517415 0.5
225 3 0.847455 0.545547 0.5
229 3 0.868902 0.51605 0.5
364 4 0.0768598 0.545653 0.5
131 2 0.18166 0.553531 0.5
334 4 0.263733 0.541574 0.5
386 4 0.28821 0.541954 0.5
117 2 0.510067 0.53729 0.5
28 1 0.730923 0.562724 0.5
300 3 0.785423 0.567634 0.5
68 1 0.899816 0.570369 0.5
38 1 0.962683 0.557972 0.5
150 2 0.269851 0.581924 0.5
183 2 0.56 0.555629 0.5
396 4 0.812258 0.572275 0.5
299 3 0.404381 0.5902 0.5
297 3 0.454322 0.572705 0.5
22 1 0.505757 0.580791 0.5
95 1 0.568995 0.614063 0.5
159 2 0.689027 0.583211 0.5
284 3 0.84428 0.574717 0.5
126 2 0.130241 0.592729 0.5
245 3 0.168751 0.6126 0.5
262 3 0.199555 0.59525 0.5
224 3 0.24464 0.613121 0.5
121 2 0.468678 0.609656 0.5
343 4 0.503283 0.623553 0.5
352 4 0.726383 0.602906 0.5
373 4 0.996467 0.614418 0.5
6 1 0.0708387 0.615873 0.5
268 3 0.670274 0.631413 0.5
261 3 0.727261 0.630101 0.5
79 1 0.769548 0.623795 0.5
19 1 0.839968 0.613584 0.5
170 2 0.909053 0.609988 0.5
43 1 0.132366 0.64017 0.5
155 2 0.203273 0.644439 0.5
142 2 0.391717 0.621511 0.5
193 2 0.444963 0.637428 0.5
310 4 0.591784 0.63816 0.5
353 4 0.706742 0.641845 0.5
347 4 0.80038 0.645131 0.5
157 2 0.883429 0.666181 0.5
52 1 0.923367 0.669646 0.5
339 4 0.940297 0.619565 0.5
264 3 0.0508279 0.669987 0.5
315 4 0.0941619 0.66152 0.5
228 3 0.243709 0.644585 0.5
177 2 0.387718 0.664476 0.5
309 4 0.445568 0.663853 0.5
66 1 0.497269 0.674144 0.5
367 4 0.794951 0.659448 0.5
238 3 0.861454 0.688495 0.5