LAMMPS data file via write_data, version 2 Aug 2023, timestep = 30000, units = lj

100 atoms
4 atom types

-5.5028988590077015 5.5028988590077015 xlo xhi
-5.5028988590077015 5.5028988590077015 ylo yhi
-0.1 0.1 zlo zhi

Atoms # sphere

35 2 1.4 0.3644314868804665 -5.137837849473919 -4.562105076579297 0 1 0 0
90 4 1 1 -4.280568999424097 -4.9985923418397995 0 0 0 0
47 2 1.4 0.3644314868804665 -3.2514739536502626 -4.643560018132305 0 0 0 0
88 4 1 1 -2.1707823856135446 -4.487524332882924 0 0 0 0
59 3 1.2 0.5787037037037038 -1.324216404192203 -4.784390639215724 0 0 0 0
93 4 1 1 -0.3570758774426839 -5.016414280671316 0 0 1 0
99 4 1 1 0.4151734829470062 -4.575370243265752 0 0 1 0
80 4 1 1 1.023793624915152 -5.192591492563767 0 0 0 0
28 2 1.4 0.3644314868804665 2.069888745130174 -5.488581933078973 0 0 0 0
98 4 1 1 2.639712572603792 -4.447851674835966 0 0 0 0
70 3 1.2 0.5787037037037038 3.096671576404911 -5.256183088201864 0 0 0 0
94 4 1 1 4.106433172512806 -5.15885160734691 0 0 1 0
66 3 1.2 0.5787037037037038 5.035491367235809 -5.145446508932452 0 -1 1 0
81 4 1 1 -5.245035070930404 -3.439502984182443 0 0 0 0
43 2 1.4 0.3644314868804665 -4.31184034353306 -3.8652044475384066 0 0 0 0
87 4 1 1 -3.405107235932761 -3.5763153149771822 0 0 0 0
95 4 1 1 -2.5686176173172433 -3.7684855538697386 0 0 0 0
27 2 1.4 0.3644314868804665 -1.5766752431590527 -3.5526201490939515 0 0 0 0
53 3 1.2 0.5787037037037038 -0.5032560752878021 -4.053815142492916 0 0 0 0
26 2 1.4 0.3644314868804665 0.4488917894341524 -3.42289211569162 0 0 0 0
14 1 1.6 0.2441406249999999 1.570165886362485 -4.189813424276753 0 0 0 0
72 3 1.2 0.5787037037037038 2.723613753920346 -3.4844060005051225 0 0 0 0
54 3 1.2 0.5787037037037038 3.542884632530831 -4.248944685888023 0 0 0 0
22 1 1.6 0.2441406249999999 4.726602251653932 -4.003683737005816 0 0 1 0
83 4 1 1 -5.005994817590835 -2.5570129084679074 0 0 0 0
67 3 1.2 0.5787037037037038 -3.9726085615253437 -2.802705517526541 0 1 0 0
36 2 1.4 0.3644314868804665 -2.674809151551628 -2.728771963234392 0 0 0 0
12 1 1.6 0.2441406249999999 -1.5291104798160267 -2.2977553937864332 0 0 0 0
68 3 1.2 0.5787037037037038 -0.5563064312567763 -2.966099183449619 0 0 0 0
76 4 1 1 0.34130526541754413 -2.36965638681301 0 0 0 0
3 1 1.6 0.2441406249999999 1.6259571290362906 -2.7797677696665737 0 0 0 0
50 2 1.4 0.3644314868804665 2.905529883928474 -2.3456886454762 0 0 0 0
30 2 1.4 0.3644314868804665 3.863000526014601 -3.1477007524037823 0 0 0 0
64 3 1.2 0.5787037037037038 4.97192449187085 -2.739614731315746 0 -1 0 0
55 3 1.2 0.5787037037037038 -4.357830285203609 -1.809678887771847 0 1 0 0
84 4 1 1 -3.4367371445727994 -1.998693416910874 0 0 0 0
10 1 1.6 0.2441406249999999 -2.4018365628751353 -1.2463320334508712 0 0 0 0
100 4 1 1 -0.5060989601846861 -1.9477750749927454 0 0 0 0
46 2 1.4 0.3644314868804665 -1.0647629903719986 -1.0514145732880413 0 0 0 0
33 2 1.4 0.3644314868804665 0.13332993866108733 -1.1733305264037188 0 0 0 0
61 3 1.2 0.5787037037037038 1.082564749400131 -1.7215782592806161 0 0 0 0
65 3 1.2 0.5787037037037038 2.1087968744156163 -1.6202655902161496 0 0 0 0
75 3 1.2 0.5787037037037038 4.231525916401114 -2.127130063862118 0 0 0 0
63 3 1.2 0.5787037037037038 3.352428335672127 -1.434312764838496 0 0 0 0
42 2 1.4 0.3644314868804665 5.366363153723531 -1.6453102839461393 0 0 0 0
48 2 1.4 0.3644314868804665 -4.783807656992735 -0.7037208236929491 0 0 0 0
62 3 1.2 0.5787037037037038 -3.641329620080358 -0.9709578352991812 0 0 0 0
79 4 1 1 -3.9765351185626585 -0.04881377509791651 0 0 0 0
40 2 1.4 0.3644314868804665 -1.705687893480611 -0.13041509308979649 0 0 0 0
7 1 1.6 0.2441406249999999 -0.16918362205358317 0.06762539196050188 0 0 0 0
21 1 1.6 0.2441406249999999 1.3161705400865964 -0.4967931331551201 0 0 0 0
37 2 1.4 0.3644314868804665 2.6439664329670647 -0.6259844121389211 0 -1 0 0
74 3 1.2 0.5787037037037038 3.7504823835349237 -0.46257241313730013 0 0 0 0
78 4 1 1 4.372766027029869 -1.152846571579885 0 0 0 0
4 1 1.6 0.2441406249999999 5.029233851401329 -0.21522467059809092 0 0 0 0
38 2 1.4 0.3644314868804665 -4.804488393553177 0.5703754501849323 0 0 0 0
89 4 1 1 -3.7445463103051795 0.78595679898035 0 1 0 0
29 2 1.4 0.3644314868804665 -2.9164161905679116 0.09621644018632747 0 0 0 0
77 4 1 1 -2.1689760571453323 0.8590621064437256 0 0 0 0
60 3 1.2 0.5787037037037038 -1.1106070611617653 0.7734067808354359 0 0 0 0
1 1 1.6 0.2441406249999999 1.0105029871367925 0.8505993439918615 0 0 0 0
9 1 1.6 0.2441406249999999 2.429538563077907 0.5739743792749987 0 0 0 0
13 1 1.6 0.2441406249999999 3.843853395984355 0.6883213001485178 0 0 0 0
15 1 1.6 0.2441406249999999 -4.3888894257329465 1.8207425110613409 0 0 0 0
25 1 1.6 0.2441406249999999 -2.9567724751010047 1.6823764671810935 0 0 0 0
41 2 1.4 0.3644314868804665 -1.6356246218495594 1.7915452438839354 0 0 0 0
18 1 1.6 0.2441406249999999 -0.23830714760441474 1.6001417675665284 0 0 0 0
86 4 1 1 0.840638046063523 2.0003494213561197 0 0 0 0
8 1 1.6 0.2441406249999999 1.973264696625229 1.9324484379404216 0 0 0 0
57 3 1.2 0.5787037037037038 3.130539912093357 1.642812015629639 0 0 0 0
91 4 1 1 4.052200749773076 1.7507807753251852 0 0 0 0
5 1 1.6 0.2441406249999999 5.156246489014783 1.3411932470291221 0 0 0 0
82 4 1 1 -5.348612925484875 2.4289609300992314 0 1 0 0
69 3 1.2 0.5787037037037038 -4.623133667736995 3.063777019717425 0 0 0 0
39 2 1.4 0.3644314868804665 -3.524367709057378 2.956419426444472 0 0 0 0
16 1 1.6 0.2441406249999999 -2.2057540599539056 3.034473685611686 0 0 0 0
51 3 1.2 0.5787037037037038 -0.9587769911725168 2.638597670820105 0 0 0 0
20 1 1.6 0.2441406249999999 0.19364142971382492 2.935567309667351 0 0 0 0
96 4 1 1 1.267761085023995 2.8689067969685444 0 0 0 0
85 4 1 1 2.1790406260200044 3.081473018971862 0 0 0 0
23 1 1.6 0.2441406249999999 3.1964505553425573 2.832507078693607 0 0 0 0
17 1 1.6 0.2441406249999999 4.602411324868776 2.686911828218176 0 0 0 0
11 1 1.6 0.2441406249999999 5.431429117471004 3.7419131339693807 0 -1 0 0
58 3 1.2 0.5787037037037038 -4.2096466431252 4.0488021192604835 0 0 0 0
32 2 1.4 0.3644314868804665 -3.0383102977140455 4.132105579785761 0 0 0 0
71 3 1.2 0.5787037037037038 -1.9154893423609538 4.202823256761561 0 0 0 0
44 2 1.4 0.3644314868804665 -0.9525390256696209 3.6921274912276525 0 0 0 0
73 3 1.2 0.5787037037037038 0.10168767831240277 4.185367150268383 0 0 0 0
97 4 1 1 0.916927205587271 3.684120341174391 0 0 -1 0
92 4 1 1 1.690557426169213 3.708188260143209 0 0 0 0
6 1 1.6 0.2441406249999999 2.6558539884309296 4.265175911361131 0 0 0 0
45 2 1.4 0.3644314868804665 3.969693738290853 3.835077315279478 0 0 0 0
19 1 1.6 0.2441406249999999 -4.977978642170667 5.049684866725888 0 0 0 0
49 2 1.4 0.3644314868804665 -3.6571928866415853 5.1351753172344745 0 0 0 0
24 1 1.6 0.2441406249999999 -2.3887576379173074 5.389559754725943 0 0 0 0
2 1 1.6 0.2441406249999999 -0.9508753911065924 5.003854863969251 0 0 -1 0
52 3 1.2 0.5787037037037038 0.2529851049044609 5.240805083510362 0 0 0 0
34 2 1.4 0.3644314868804665 1.2499457583363203 4.690515328299022 0 0 0 0
56 3 1.2 0.5787037037037038 3.617402756114523 4.9435629004018695 0 0 -1 0
31 2 1.4 0.3644314868804665 4.71098019946442 4.874980278032406 0 0 -1 0

Velocities

35 0.047385562783816164 -0.06929103767425833 0 0 0 0
90 0.07232538367332812 -0.0454803506932967 0 0 0 0
47 -0.0164483835610446 0.11097609025453875 0 0 0 0
88 -0.007912753294480311 0.03071191756378533 0 0 0 0
59 -0.030648661604395066 -0.010247316174450941 0 0 0 0
93 -0.005239555195476967 -0.019521942388723817 0 0 0 0
99 0.060723245034226964 0.01946545402292391 0 0 0 0
80 0.003398235678939589 0.03970170956670151 0 0 0 0
28 -0.0186220596327405 -0.04160339246450084 0 0 0 0
98 0.011775033338099877 -0.0873566196469555 0 0 0 0
70 0.08047538066314963 -0.0026994887009048926 0 0 0 0
94 -0.0530977049970519 -0.11829331339398608 0 0 0 0
66 -0.024418794858881418 0.031965967553619225 0 0 0 0
81 0.014907217636839474 -0.0759930779099422 0 0 0 0
43 0.03257419110895028 0.011042374132976549 0 0 0 0
87 -0.00107777474900627 -0.07746380211871634 0 0 0 0
95 -0.0931371604173558 0.0011170867417156416 0 0 0 0
27 -0.06435521096644689 0.004068338402198155 0 0 0 0
53 0.011962957446120394 0.05232967889581026 0 0 0 0
26 -0.05432178765199658 -0.08980214538420322 0 0 0 0
14 -0.11302233366507526 0.09663995893315218 0 0 0 0
72 0.11685661975671273 -0.04432211940890652 0 0 0 0
54 0.01750334777761899 -0.003516266075911083 0 0 0 0
22 0.06730717874832162 -0.059483836027329956 0 0 0 0
83 0.03322904718551868 -0.05763184464476286 0 0 0 0
67 -0.025779979019511817 -0.008278478156232446 0 0 0 0
36 -0.03920098761925211 -0.008902844913439407 0 0 0 0
12 0.06532569962007277 0.09523924406998967 0 0 0 0
68 0.036885444688227235 0.05265087078404556 0 0 0 0
76 -0.024481654764361236 0.10116623401857634 0 0 0 0
3 -0.075486484918961 -0.11882389542140867 0 0 0 0
50 -0.07903457503501139 0.029662411227960917 0 0 0 0
30 0.07218149497545849 -0.03213055468578564 0 0 0 0
64 0.04190548195047579 -0.05121865565305407 0 0 0 0
55 0.0005371037825862545 0.10320112443515339 0 0 0 0
84 0.043695864683125925 0.02702923365006193 0 0 0 0
10 0.009147073361546725 -0.00375146176820582 0 0 0 0
100 0.01886032799739774 -0.08518120164340418 0 0 0 0
46 -0.011552506511412548 -0.053061649624152364 0 0 0 0
33 0.05392584455610673 -0.07923747954620572 0 0 0 0
61 -0.02678267705996368 -0.01839831560068325 0 0 0 0
65 0.07420342060889801 -0.003368416892784746 0 0 0 0
75 0.053267474996127565 0.05591455871098545 0 0 0 0
63 -0.057819090349594406 -0.06236259867244339 0 0 0 0
42 0.027092782754179794 0.005255628308194314 0 0 0 0
48 -0.08949269784731222 -0.10436477254268685 0 0 0 0
62 0.06326256188063904 -0.02043146637456689 0 0 0 0
79 -0.05463176086654791 0.11816096666834584 0 0 0 0
40 -0.022665385563756035 0.09066632080482723 0 0 0 0
7 -0.0778430540267932 0.042431941120701325 0 0 0 0
21 0.03969222299680729 0.006170071034229688 0 0 0 0
37 -0.009570297963089438 0.09922765948130992 0 0 0 0
74 0.07084294598432281 -0.05443581025639302 0 0 0 0
78 -0.06514340828857657 -0.06522002621371696 0 0 0 0
4 -0.09686318647218352 -0.007689117346104701 0 0 0 0
38 0.029606043646471625 -0.029731356061084145 0 0 0 0
89 -0.05289413310362088 0.06313682746023916 0 0 0 0
29 -0.02984276328895542 -0.04046887905384242 0 0 0 0
77 0.04164061473991003 -0.055205455756708474 0 0 0 0
60 0.06741929458755246 -0.039439807703709 0 0 0 0
1 0.06058470594622388 0.06582230057390642 0 0 0 0
9 0.06240894321156194 0.046767956477375916 0 0 0 0
13 0.006425209196191649 0.10724943736352574 0 0 0 0
15 0.003067287550023084 -0.03435679982330927 0 0 0 0
25 0.04691736784978072 -0.034138708943504986 0 0 0 0
41 -0.05736471598159826 0.03838439051031949 0 0 0 0
18 -0.14522549954187672 0.013859068393240798 0 0 0 0
86 0.01480306125232212 0.010526647876437659 0 0 0 0
8 -0.03230737195254178 0.028884017899858484 0 0 0 0
57 0.007393664817287599 -0.05292371863765894 0 0 0 0
91 -0.011352126772044457 -0.007486037456746285 0 0 0 0
5 0.002404065932486118 -0.012495411959159928 0 0 0 0
82 -0.0030877057098630946 -0.06394443261952068 0 0 0 0
69 -0.009731242863656413 0.0010191343230747587 0 0 0 0
39 0.0682299364404464 -0.07932143864429973 0 0 0 0
16 -0.039621398111812076 0.07101245482263258 0 0 0 0
51 -0.0253707604402291 0.02740198545704649 0 0 0 0
20 0.017173870570540508 0.003988874046030835 0 0 0 0
96 -0.049127630810561186 0.07835502374651328 0 0 0 0
85 0.03272903422733996 0.010930089120979456 0 0 0 0
23 -0.04625867217514304 0.025508720936435525 0 0 0 0
17 0.003812902915358718 0.03575245776822637 0 0 0 0
11 -0.08817528099841108 0.04591008642579057 0 0 0 0
58 -0.10613052864460215 -0.023627529149284548 0 0 0 0
32 0.0585949094730605 -0.002989765096907062 0 0 0 0
71 0.08451265571394631 0.11351783891721799 0 0 0 0
44 -0.028380493067151295 0.015874219312352587 0 0 0 0
73 0.07039128202939561 0.008110341673281967 0 0 0 0
97 0.10375888100787621 -0.04273528373662719 0 0 0 0
92 0.049907535349854835 -0.015030757029393943 0 0 0 0
6 0.019629211336484226 0.014689164943869737 0 0 0 0
45 -0.013864942737855709 0.051803574728987896 0 0 0 0
19 0.028439368890970342 0.01307121461837022 0 0 0 0
49 -0.01577368064671395 -0.009157585963925033 0 0 0 0
24 -0.0478795522463892 0.03689916667994456 0 0 0 0
2 0.00876792701605358 0.03117277195627747 0 0 0 0
52 -0.09949628652172994 -0.017131616766784635 0 0 0 0
34 -0.03255294427887629 -0.061783031402424624 0 0 0 0
56 0.01304771796359444 -0.07752118812047763 0 0 0 0
31 0.030173019461567228 0.09460949552975113 0 0 0 0
