ITEM: TIMESTEP
0
ITEM: NUMBER OF ATOMS
100
ITEM: BOX BOUNDS pp pp pp
-7.0000000000000000e+00 7.0000000000000000e+00
-7.0000000000000000e+00 7.0000000000000000e+00
-1.0000000000000001e-01 1.0000000000000001e-01
ITEM: ATOMS id type xs ys zs
64 3 0.0622366 0.00986513 0.5
2 1 0.209794 0.00476646 0.5
59 3 0.333136 0.0165859 0.5
56 3 0.502113 0.0209356 0.5
97 4 0.63783 0.0115526 0.5
70 3 0.74118 0.0194173 0.5
54 3 0.821801 0.0174479 0.5
31 2 0.88993 0.0593487 0.5
90 4 0.0182131 0.107068 0.5
43 2 0.0884229 0.124418 0.5
84 4 0.137091 0.0902241 0.5
47 2 0.264419 0.0892685 0.5
36 2 0.332012 0.118972 0.5
53 3 0.380561 0.0919109 0.5
62 3 0.509793 0.0880172 0.5
28 2 0.548409 0.118012 0.5
14 1 0.673772 0.0893709 0.5
65 3 0.743984 0.138582 0.5
50 2 0.778432 0.104962 0.5
72 3 0.822757 0.0849996 0.5
63 3 0.908735 0.103479 0.5
98 4 0.851378 0.108736 0.5
87 4 0.358732 0.200822 0.5
12 1 0.488796 0.196151 0.5
74 3 0.69621 0.193128 0.5
30 2 0.848287 0.157531 0.5
81 4 0.00531291 0.294115 0.5
88 4 0.086288 0.24298 0.5
68 3 0.362544 0.283783 0.5
46 2 0.417522 0.294952 0.5
35 2 0.754642 0.26453 0.5
76 4 0.721797 0.245067 0.5
67 3 0.836393 0.254819 0.5
75 3 0.940339 0.271154 0.5
83 4 0.000141144 0.372212 0.5
29 2 0.301086 0.360046 0.5
80 4 0.344162 0.33565 0.5
26 2 0.621905 0.356564 0.5
9 1 0.924278 0.346065 0.5
55 3 0.959262 0.310594 0.5
37 2 0.0238852 0.437982 0.5
48 2 0.191375 0.444 0.5
27 2 0.231359 0.457169 0.5
95 4 0.537601 0.454551 0.5
21 1 0.720675 0.388636 0.5
89 4 0.953734 0.415348 0.5
25 1 0.11284 0.50405 0.5
10 1 0.306805 0.472893 0.5
77 4 0.301871 0.538211 0.5
7 1 0.389571 0.522459 0.5
3 1 0.593352 0.472614 0.5
40 2 0.582467 0.515572 0.5
100 4 0.67564 0.479631 0.5
13 1 0.816832 0.498223 0.5
78 4 0.871217 0.536844 0.5
38 2 0.0581658 0.5927 0.5
69 3 0.179663 0.59113 0.5
16 1 0.352806 0.614257 0.5
79 4 0.32246 0.581809 0.5
61 3 0.737109 0.584705 0.5
42 2 0.806724 0.605841 0.5
4 1 0.903289 0.583662 0.5
11 1 0.0590641 0.689586 0.5
15 1 0.0418663 0.646289 0.5
39 2 0.201204 0.640623 0.5
18 1 0.757935 0.619728 0.5
33 2 0.787688 0.674909 0.5
5 1 0.924475 0.646132 0.5
82 4 0.978381 0.649404 0.5
19 1 0.0158128 0.764905 0.5
58 3 0.0896504 0.753655 0.5
32 2 0.16557 0.728538 0.5
20 1 0.423498 0.727407 0.5
60 3 0.6797 0.715725 0.5
1 1 0.756811 0.719461 0.5
85 4 0.699456 0.751233 0.5
91 4 0.814645 0.731427 0.5
17 1 0.964465 0.767171 0.5
66 3 0.076326 0.811075 0.5
44 2 0.340322 0.795425 0.5
52 3 0.478838 0.836405 0.5
86 4 0.48889 0.777101 0.5
8 1 0.611281 0.802653 0.5
57 3 0.816434 0.808376 0.5
23 1 0.862128 0.780314 0.5
71 3 0.119705 0.879572 0.5
99 4 0.350501 0.875553 0.5
92 4 0.435111 0.91312 0.5
96 4 0.399648 0.886632 0.5
34 2 0.6762 0.886723 0.5
6 1 0.846962 0.887519 0.5
45 2 0.915384 0.853357 0.5
22 1 0.933951 0.91583 0.5
24 1 0.101267 0.998003 0.5
49 2 0.145592 0.960571 0.5
73 3 0.196939 0.948733 0.5
51 3 0.459808 0.999734 0.5
93 4 0.386742 0.97779 0.5
41 2 0.530731 0.991038 0.5
94 4 0.904503 0.980777 0.5
ITEM: TIMESTEP
50
ITEM: NUMBER OF ATOMS
100
ITEM: BOX BOUNDS pp pp pp
-6.0399653816855139e+00 6.0399653816855139e+00
-6.0399653816855139e+00 6.0399653816855139e+00
-1.0000000000000001e-01 1.0000000000000001e-01
ITEM: ATOMS id type xs ys zs
64 3 0.0553277 0.0121096 0.5
2 1 0.214761 0.0102199 0.5
59 3 0.331464 0.0163752 0.5
56 3 0.501806 0.024228 0.5
97 4 0.637102 0.00994658 0.5
70 3 0.74025 0.0174471 0.5
54 3 0.821465 0.0129927 0.5
31 2 0.894393 0.0535227 0.5
90 4 0.016046 0.106518 0.5
43 2 0.0878244 0.126972 0.5
84 4 0.140084 0.0889108 0.5
47 2 0.261834 0.0899124 0.5
36 2 0.331069 0.122035 0.5
53 3 0.384854 0.0903374 0.5
62 3 0.506032 0.0878286 0.5
28 2 0.553679 0.119598 0.5
14 1 0.670036 0.0896321 0.5
65 3 0.7434 0.14217 0.5
50 2 0.775023 0.103734 0.5
72 3 0.819943 0.0809877 0.5
63 3 0.915749 0.106733 0.5
98 4 0.852699 0.110204 0.5
87 4 0.35903 0.201142 0.5
12 1 0.487654 0.197925 0.5
74 3 0.692925 0.192174 0.5
30 2 0.849112 0.166519 0.5
81 4 0.0108867 0.292764 0.5
88 4 0.086288 0.24298 0.5
68 3 0.359647 0.280107 0.5
46 2 0.422628 0.29558 0.5
35 2 0.757815 0.268287 0.5
76 4 0.718474 0.244913 0.5
67 3 0.838373 0.255381 0.5
75 3 0.937353 0.263179 0.5
83 4 0.00322469 0.37105 0.5
29 2 0.296902 0.361702 0.5
80 4 0.345939 0.337032 0.5
26 2 0.620546 0.355609 0.5
9 1 0.915852 0.350358 0.5
55 3 0.961207 0.310968 0.5
37 2 0.0258628 0.440302 0.5
48 2 0.186563 0.440586 0.5
27 2 0.233457 0.458468 0.5
95 4 0.53256 0.451872 0.5
21 1 0.722349 0.388718 0.5
89 4 0.951741 0.418234 0.5
25 1 0.112543 0.504121 0.5
10 1 0.308972 0.469531 0.5
77 4 0.298339 0.538378 0.5
7 1 0.395399 0.52041 0.5
3 1 0.596876 0.467435 0.5
40 2 0.581738 0.523726 0.5
100 4 0.677562 0.480239 0.5
13 1 0.813629 0.494382 0.5
78 4 0.871849 0.534852 0.5
38 2 0.059113 0.586212 0.5
69 3 0.178149 0.587349 0.5
16 1 0.35602 0.621414 0.5
79 4 0.319047 0.581445 0.5
61 3 0.730973 0.578067 0.5
42 2 0.813813 0.603161 0.5
4 1 0.906207 0.581469 0.5
11 1 0.0631232 0.691685 0.5
15 1 0.0423161 0.643958 0.5
39 2 0.203691 0.643267 0.5
18 1 0.752535 0.619906 0.5
33 2 0.791536 0.6755 0.5
5 1 0.920587 0.651026 0.5
82 4 0.978375 0.649732 0.5
19 1 0.0147197 0.76723 0.5
58 3 0.0933814 0.754088 0.5
32 2 0.16792 0.729659 0.5
20 1 0.422944 0.725591 0.5
60 3 0.674632 0.711398 0.5
1 1 0.754501 0.723839 0.5
85 4 0.698771 0.756545 0.5
91 4 0.817696 0.731577 0.5
17 1 0.960459 0.766205 0.5
66 3 0.0773907 0.815194 0.5
44 2 0.339183 0.794757 0.5
52 3 0.478571 0.838683 0.5
86 4 0.490986 0.775798 0.5
8 1 0.609784 0.802174 0.5
57 3 0.811311 0.810409 0.5
23 1 0.865913 0.776615 0.5
71 3 0.119951 0.879033 0.5
99 4 0.347968 0.87642 0.5
92 4 0.437696 0.914947 0.5
96 4 0.399678 0.885249 0.5
34 2 0.677017 0.88778 0.5
6 1 0.840859 0.892415 0.5
45 2 0.918164 0.85085 0.5
22 1 0.939902 0.918901 0.5
24 1 0.100682 0.999392 0.5
49 2 0.143392 0.957085 0.5
73 3 0.200931 0.942567 0.5
51 3 0.454155 0.998628 0.5
93 4 0.387082 0.976409 0.5
41 2 0.537682 0.986013 0.5
94 4 0.903678 0.981903 0.5
ITEM: TIMESTEP
100
ITEM: NUMBER OF ATOMS
100
ITEM: BOX BOUNDS pp pp pp
-6.0723013924530473e+00 6.0723013924530473e+00
-6.0723013924530473e+00 6.0723013924530473e+00
-1.0000000000000001e-01 1.0000000000000001e-01
ITEM: ATOMS id type xs ys zs
64 3 0.0367937 0.017814 0.5
2 1 0.225877 0.0219133 0.5
59 3 0.327058 0.0159633 0.5
56 3 0.501532 0.0314624 0.5
97 4 0.635208 0.00503333 0.5
70 3 0.737098 0.0114766 0.5
54 3 0.820578 0.00076958 0.5
31 2 0.906086 0.0409686 0.5
90 4 0.0100102 0.104818 0.5
43 2 0.0865605 0.134083 0.5
84 4 0.148304 0.0859617 0.5
47 2 0.255179 0.093381 0.5
36 2 0.328818 0.129579 0.5
53 3 0.396354 0.0861107 0.5
62 3 0.495773 0.0888142 0.5
28 2 0.567143 0.123399 0.5
14 1 0.659956 0.090019 0.5
65 3 0.743239 0.152584 0.5
50 2 0.766857 0.100777 0.5
72 3 0.814222 0.0713714 0.5
63 3 0.933065 0.115559 0.5
98 4 0.856384 0.114134 0.5
87 4 0.360266 0.201823 0.5
12 1 0.484793 0.202121 0.5
74 3 0.683391 0.190522 0.5
30 2 0.850927 0.186163 0.5
81 4 0.0246254 0.288934 0.5
88 4 0.0863027 0.242969 0.5
68 3 0.35172 0.271085 0.5
46 2 0.43557 0.298051 0.5
35 2 0.765084 0.278117 0.5
76 4 0.709954 0.245172 0.5
67 3 0.843988 0.258486 0.5
75 3 0.930581 0.243757 0.5
83 4 0.0108791 0.368235 0.5
29 2 0.285407 0.364296 0.5
80 4 0.351238 0.341333 0.5
26 2 0.616815 0.351904 0.5
9 1 0.894063 0.359697 0.5
55 3 0.965662 0.31175 0.5
37 2 0.0303545 0.446137 0.5
48 2 0.174797 0.430213 0.5
27 2 0.237533 0.46274 0.5
95 4 0.51977 0.445949 0.5
21 1 0.727148 0.388847 0.5
89 4 0.947107 0.426001 0.5
25 1 0.112563 0.503635 0.5
10 1 0.31607 0.461124 0.5
77 4 0.289129 0.538772 0.5
7 1 0.410064 0.516138 0.5
3 1 0.605082 0.454626 0.5
40 2 0.579332 0.5439 0.5
100 4 0.683389 0.482507 0.5
13 1 0.804795 0.483735 0.5
78 4 0.873657 0.5283 0.5
38 2 0.0604611 0.570217 0.5
69 3 0.174641 0.578127 0.5
16 1 0.3634 0.638083 0.5
79 4 0.311021 0.581066 0.5
61 3 0.716337 0.560247 0.5
42 2 0.828362 0.596809 0.5
4 1 0.91664 0.574527 0.5
11 1 0.0737065 0.695563 0.5
15 1 0.0436573 0.637762 0.5
39 2 0.210817 0.649249 0.5
18 1 0.737293 0.62055 0.5
33 2 0.802274 0.676071 0.5
5 1 0.909583 0.664413 0.5
82 4 0.978382 0.650675 0.5
19 1 0.011852 0.774098 0.5
58 3 0.103268 0.756388 0.5
32 2 0.175668 0.733579 0.5
20 1 0.422331 0.721297 0.5
60 3 0.661264 0.699848 0.5
1 1 0.748014 0.735067 0.5
85 4 0.696146 0.770603 0.5
91 4 0.825557 0.731592 0.5
17 1 0.951988 0.762181 0.5
66 3 0.0796234 0.825618 0.5
44 2 0.335669 0.792893 0.5
52 3 0.477987 0.844465 0.5
86 4 0.497082 0.772416 0.5
8 1 0.604928 0.800944 0.5
57 3 0.798416 0.816179 0.5
23 1 0.874193 0.768292 0.5
71 3 0.121138 0.87741 0.5
99 4 0.340764 0.879366 0.5
92 4 0.444592 0.919492 0.5
96 4 0.400055 0.881236 0.5
34 2 0.67944 0.890879 0.5
6 1 0.8261 0.905262 0.5
45 2 0.924427 0.846548 0.5
22 1 0.956137 0.926552 0.5
24 1 0.099406 0.00361058 0.5
49 2 0.138347 0.948515 0.5
73 3 0.211536 0.926744 0.5
51 3 0.441818 0.996774 0.5
93 4 0.386705 0.97214 0.5
41 2 0.554364 0.973338 0.5
94 4 0.901082 0.983164 0.5
ITEM: TIMESTEP
150
ITEM: NUMBER OF ATOMS
100
ITEM: BOX BOUNDS pp pp pp
-6.0158637024318073e+00 6.0158637024318073e+00
-6.0158637024318073e+00 6.0158637024318073e+00
-1.0000000000000001e-01 1.0000000000000001e-01
ITEM: ATOMS id type xs ys zs
64 3 0.0103874 0.025381 0.5
2 1 0.235306 0.0301754 0.5
59 3 0.322802 0.0166298 0.5
56 3 0.503195 0.0378652 0.5
97 4 0.634293 0.997963 0.5
70 3 0.731312 0.0030253 0.5
54 3 0.819292 0.986314 0.5
31 2 0.921162 0.0300466 0.5
90 4 0.00347178 0.101997 0.5
43 2 0.0852419 0.144236 0.5
84 4 0.159222 0.0832768 0.5
47 2 0.246182 0.101806 0.5
36 2 0.326508 0.138814 0.5
53 3 0.410869 0.0799508 0.5
62 3 0.481451 0.0942816 0.5
28 2 0.581812 0.129682 0.5
14 1 0.649476 0.0891085 0.5
65 3 0.744939 0.16914 0.5
50 2 0.756674 0.0967863 0.5
72 3 0.810326 0.0589078 0.5
63 3 0.952359 0.128918 0.5
98 4 0.862039 0.118777 0.5
87 4 0.363407 0.202155 0.5
12 1 0.481931 0.205398 0.5
74 3 0.668216 0.188797 0.5
30 2 0.851344 0.204273 0.5
81 4 0.0418445 0.283881 0.5
88 4 0.0871467 0.2423 0.5
68 3 0.340464 0.261331 0.5
46 2 0.450894 0.303455 0.5
35 2 0.773458 0.290856 0.5
76 4 0.698711 0.246988 0.5
67 3 0.851466 0.266209 0.5
75 3 0.925415 0.221054 0.5
83 4 0.0200192 0.364995 0.5
29 2 0.268684 0.364307 0.5
80 4 0.360281 0.347631 0.5
26 2 0.612316 0.34444 0.5
9 1 0.866043 0.369776 0.5
55 3 0.969531 0.312324 0.5
37 2 0.0344661 0.453124 0.5
48 2 0.159397 0.412999 0.5
27 2 0.2397 0.470282 0.5
95 4 0.503525 0.439564 0.5
21 1 0.731901 0.388553 0.5
89 4 0.942376 0.436215 0.5
25 1 0.11505 0.501336 0.5
10 1 0.329656 0.450159 0.5
77 4 0.276619 0.538884 0.5
7 1 0.428356 0.513129 0.5
3 1 0.614006 0.439552 0.5
40 2 0.575592 0.568886 0.5
100 4 0.69216 0.48515 0.5
13 1 0.793276 0.470858 0.5
78 4 0.875529 0.516369 0.5
38 2 0.0598453 0.550291 0.5
69 3 0.171133 0.567314 0.5
16 1 0.370892 0.654925 0.5
79 4 0.302307 0.582254 0.5
61 3 0.69913 0.535859 0.5
42 2 0.84082 0.587244 0.5
4 1 0.936625 0.563686 0.5
11 1 0.0873945 0.697718 0.5
15 1 0.0445173 0.629055 0.5
39 2 0.221505 0.655514 0.5
18 1 0.716098 0.622814 0.5
33 2 0.814891 0.673882 0.5
5 1 0.896774 0.679335 0.5
82 4 0.97825 0.652822 0.5
19 1 0.010946 0.784042 0.5
58 3 0.116626 0.762704 0.5
32 2 0.189161 0.740513 0.5
20 1 0.423835 0.718371 0.5
60 3 0.643041 0.685863 0.5
1 1 0.739363 0.7485 0.5
85 4 0.690103 0.790169 0.5
91 4 0.834048 0.732732 0.5
17 1 0.944548 0.753544 0.5
66 3 0.0810083 0.838966 0.5
44 2 0.330603 0.790199 0.5
52 3 0.478014 0.851166 0.5
86 4 0.506007 0.768011 0.5
8 1 0.597686 0.799558 0.5
57 3 0.782491 0.824036 0.5
23 1 0.880404 0.763385 0.5
71 3 0.124543 0.874411 0.5
99 4 0.329893 0.884178 0.5
92 4 0.454491 0.925307 0.5
96 4 0.400559 0.875138 0.5
34 2 0.682548 0.894816 0.5
6 1 0.810194 0.91899 0.5
45 2 0.929559 0.846421 0.5
22 1 0.978644 0.936204 0.5
24 1 0.0992126 0.0118171 0.5
49 2 0.133843 0.938311 0.5
73 3 0.226486 0.9064 0.5
51 3 0.429396 0.996483 0.5
93 4 0.383504 0.96451 0.5
41 2 0.572686 0.956326 0.5
94 4 0.895901 0.980784 0.5
ITEM: TIMESTEP
200
ITEM: NUMBER OF ATOMS
100
ITEM: BOX BOUNDS pp pp pp
-5.9750956943190658e+00 5.9750956943190658e+00
-5.9750956943190658e+00 5.9750956943190658e+00
-1.0000000000000001e-01 1.0000000000000001e-01
ITEM: ATOMS id type xs ys zs
64 3 0.983575 0.0345127 0.5
2 1 0.240968 0.0294719 0.5
59 3 0.321654 0.0178842 0.5
56 3 0.509003 0.0400446 0.5
97 4 0.636293 0.990559 0.5
70 3 0.722585 0.993325 0.5
54 3 0.818842 0.97487 0.5
31 2 0.934879 0.0264373 0.5
90 4 0.000289653 0.0982829 0.5
43 2 0.0843936 0.155038 0.5
84 4 0.168711 0.0828913 0.5
47 2 0.235846 0.117319 0.5
36 2 0.325309 0.146904 0.5
53 3 0.421481 0.0742983 0.5
62 3 0.468325 0.105757 0.5
28 2 0.590173 0.139519 0.5
14 1 0.642226 0.0841247 0.5
65 3 0.748896 0.190438 0.5
50 2 0.745024 0.093133 0.5
72 3 0.810568 0.0454822 0.5
63 3 0.968404 0.14503 0.5
98 4 0.869064 0.122737 0.5
87 4 0.370558 0.202069 0.5
12 1 0.48001 0.206383 0.5
74 3 0.649151 0.187333 0.5
30 2 0.846679 0.216079 0.5
81 4 0.0587513 0.280425 0.5
88 4 0.0906267 0.23969 0.5
68 3 0.327097 0.254898 0.5
46 2 0.465512 0.312379 0.5
35 2 0.779952 0.302694 0.5
76 4 0.687261 0.251704 0.5
67 3 0.86151 0.279447 0.5
75 3 0.926044 0.198838 0.5
83 4 0.0310451 0.362153 0.5
29 2 0.249193 0.361145 0.5
80 4 0.371008 0.353801 0.5
26 2 0.607606 0.331987 0.5
9 1 0.83901 0.380609 0.5
55 3 0.970007 0.311616 0.5
37 2 0.0348704 0.456909 0.5
48 2 0.14317 0.390168 0.5
27 2 0.237278 0.47823 0.5
95 4 0.487212 0.432409 0.5
21 1 0.732729 0.386248 0.5
89 4 0.937436 0.447174 0.5
25 1 0.123094 0.496035 0.5
10 1 0.34828 0.438798 0.5
77 4 0.262439 0.538509 0.5
7 1 0.448552 0.512255 0.5
3 1 0.620295 0.427597 0.5
40 2 0.571656 0.594477 0.5
100 4 0.70196 0.483606 0.5
13 1 0.782906 0.461631 0.5
78 4 0.877106 0.499214 0.5
38 2 0.0558534 0.530762 0.5
69 3 0.170215 0.559162 0.5
16 1 0.374061 0.666618 0.5
79 4 0.295288 0.587055 0.5
61 3 0.6808 0.513369 0.5
42 2 0.848084 0.575122 0.5
4 1 0.962766 0.550961 0.5
11 1 0.102598 0.697353 0.5
15 1 0.0463604 0.618822 0.5
39 2 0.234386 0.658983 0.5
18 1 0.69551 0.625616 0.5
33 2 0.820416 0.666526 0.5
5 1 0.888484 0.683959 0.5
82 4 0.976775 0.656741 0.5
19 1 0.0150448 0.795634 0.5
58 3 0.130617 0.774867 0.5
32 2 0.208601 0.750815 0.5
20 1 0.429875 0.720033 0.5
60 3 0.621506 0.673558 0.5
1 1 0.73017 0.756885 0.5
85 4 0.680956 0.814197 0.5
91 4 0.836164 0.737326 0.5
17 1 0.943853 0.740593 0.5
66 3 0.0791061 0.853095 0.5
44 2 0.32458 0.787238 0.5
52 3 0.480106 0.855984 0.5
86 4 0.515276 0.763298 0.5
8 1 0.589593 0.79899 0.5
57 3 0.767391 0.833674 0.5
23 1 0.880717 0.770161 0.5
71 3 0.132741 0.868545 0.5
99 4 0.317152 0.890165 0.5
92 4 0.466096 0.931805 0.5
96 4 0.400236 0.868192 0.5
34 2 0.685643 0.898954 0.5
6 1 0.79402 0.927215 0.5
45 2 0.931654 0.854163 0.5
22 1 0.00541739 0.943006 0.5
24 1 0.0987139 0.0241146 0.5
49 2 0.131972 0.929558 0.5
73 3 0.24305 0.885106 0.5
51 3 0.419 0.998447 0.5
93 4 0.376668 0.952333 0.5
41 2 0.588169 0.936218 0.5
94 4 0.888427 0.973096 0.5
ITEM: TIMESTEP
250
ITEM: NUMBER OF ATOMS
100
ITEM: BOX BOUNDS pp pp pp
-5.9661239925345537e+00 5.9661239925345537e+00
-5.9661239925345537e+00 5.9661239925345537e+00
-1.0000000000000001e-01 1.0000000000000001e-01
ITEM: ATOMS id type xs ys zs
64 3 0.964231 0.0449402 0.5
2 1 0.243325 0.0215968 0.5
59 3 0.325285 0.0192086 0.5
56 3 0.517921 0.038795 0.5
97 4 0.640025 0.984086 0.5
70 3 0.712384 0.986279 0.5
54 3 0.820473 0.967899 0.5
31 2 0.940057 0.0261861 0.5
90 4 0.00194979 0.094461 0.5
43 2 0.0835355 0.163124 0.5
84 4 0.174261 0.0843319 0.5
47 2 0.225362 0.139336 0.5
36 2 0.324773 0.152 0.5
53 3 0.425391 0.0691998 0.5
62 3 0.458989 0.121553 0.5
28 2 0.588579 0.151545 0.5
14 1 0.63694 0.0735324 0.5
65 3 0.752608 0.212384 0.5
50 2 0.733876 0.0916873 0.5
72 3 0.813989 0.0345894 0.5
63 3 0.984128 0.161714 0.5
98 4 0.875973 0.12569 0.5
87 4 0.382633 0.202695 0.5
12 1 0.479219 0.207073 0.5
74 3 0.632673 0.189009 0.5
30 2 0.838131 0.221476 0.5
81 4 0.0723787 0.281086 0.5
88 4 0.0974923 0.235569 0.5
68 3 0.311665 0.25192 0.5
46 2 0.479387 0.324132 0.5
35 2 0.781767 0.30869 0.5
76 4 0.676851 0.259304 0.5
67 3 0.876853 0.296429 0.5
75 3 0.92813 0.180127 0.5
83 4 0.0432668 0.359673 0.5
29 2 0.230806 0.357146 0.5
80 4 0.382398 0.356524 0.5
26 2 0.602372 0.315036 0.5
9 1 0.822308 0.39195 0.5
55 3 0.968629 0.309673 0.5
37 2 0.0304412 0.4522 0.5
48 2 0.126753 0.365124 0.5
27 2 0.233523 0.480641 0.5
95 4 0.472471 0.422598 0.5
21 1 0.72537 0.380532 0.5
89 4 0.932797 0.45676 0.5
25 1 0.13639 0.486811 0.5
10 1 0.366326 0.430032 0.5
77 4 0.248665 0.539985 0.5
7 1 0.46839 0.515123 0.5
3 1 0.622345 0.418851 0.5
40 2 0.56597 0.617144 0.5
100 4 0.713178 0.478213 0.5
13 1 0.776567 0.461521 0.5
78 4 0.878782 0.479614 0.5
38 2 0.0520969 0.51451 0.5
69 3 0.172345 0.556904 0.5
16 1 0.370491 0.671659 0.5
79 4 0.291421 0.594294 0.5
61 3 0.658791 0.499191 0.5
42 2 0.853024 0.561498 0.5
4 1 0.982358 0.538648 0.5
11 1 0.118623 0.695766 0.5
15 1 0.0514703 0.610267 0.5
39 2 0.247293 0.659842 0.5
18 1 0.679639 0.626758 0.5
33 2 0.814684 0.655146 0.5
5 1 0.885357 0.675167 0.5
82 4 0.975002 0.659542 0.5
19 1 0.0236085 0.806113 0.5
58 3 0.142747 0.791119 0.5
32 2 0.231421 0.763373 0.5
20 1 0.440656 0.726943 0.5
60 3 0.597932 0.666431 0.5
1 1 0.721901 0.756677 0.5
85 4 0.670207 0.83955 0.5
91 4 0.828577 0.744793 0.5
17 1 0.95222 0.72678 0.5
66 3 0.0727604 0.866682 0.5
44 2 0.319033 0.784545 0.5
52 3 0.484394 0.85802 0.5
86 4 0.522532 0.75775 0.5
8 1 0.582944 0.799891 0.5
57 3 0.755144 0.843996 0.5
23 1 0.875929 0.790759 0.5
71 3 0.147777 0.858435 0.5
99 4 0.30702 0.896531 0.5
92 4 0.478016 0.939212 0.5
96 4 0.398307 0.861554 0.5
34 2 0.68761 0.903632 0.5
6 1 0.778384 0.927496 0.5
45 2 0.931749 0.868544 0.5
22 1 0.0326787 0.945316 0.5
24 1 0.096482 0.0393811 0.5
49 2 0.133528 0.926783 0.5
73 3 0.256574 0.863737 0.5
51 3 0.411022 1.0009 0.5
93 4 0.367483 0.936245 0.5
41 2 0.598305 0.913853 0.5
94 4 0.8821 0.961856 0.5
ITEM: TIMESTEP
300
ITEM: NUMBER OF ATOMS
100
ITEM: BOX BOUNDS pp pp pp
-5.8975021104057674e+00 5.8975021104057674e+00
-5.8975021104057674e+00 5.8975021104057674e+00
-1.0000000000000001e-01 1.0000000000000001e-01
ITEM: ATOMS id type xs ys zs
64 3 0.951849 0.059558 0.5
2 1 0.241893 0.0106669 0.5
59 3 0.332508 0.0209513 0.5
56 3 0.527375 0.0368527 0.5
97 4 0.641525 0.977971 0.5
70 3 0.703442 0.985703 0.5
54 3 0.824553 0.962963 0.5
31 2 0.935661 0.0196358 0.5
90 4 0.00812993 0.0921497 0.5
43 2 0.0834446 0.167106 0.5
84 4 0.177698 0.0861489 0.5
47 2 0.214896 0.16516 0.5
36 2 0.324334 0.153484 0.5
53 3 0.426201 0.0642118 0.5
62 3 0.451881 0.138 0.5
28 2 0.577984 0.162358 0.5
14 1 0.630074 0.0606938 0.5
65 3 0.752443 0.231954 0.5
50 2 0.725911 0.0924355 0.5
72 3 0.818499 0.0290356 0.5
63 3 1.00292 0.179625 0.5
98 4 0.880786 0.126559 0.5
87 4 0.396249 0.205099 0.5
12 1 0.481131 0.211493 0.5
74 3 0.622155 0.195284 0.5
30 2 0.831391 0.222178 0.5
81 4 0.0826308 0.285192 0.5
88 4 0.10777 0.231279 0.5
68 3 0.29541 0.251028 0.5
46 2 0.493069 0.336475 0.5
35 2 0.781792 0.308907 0.5
76 4 0.66822 0.267733 0.5
67 3 0.894835 0.315244 0.5
75 3 0.927649 0.165204 0.5
83 4 0.0530093 0.356473 0.5
29 2 0.214874 0.353072 0.5
80 4 0.39477 0.353725 0.5
26 2 0.595538 0.295751 0.5
9 1 0.817616 0.401837 0.5
55 3 0.968322 0.307543 0.5
37 2 0.023311 0.436234 0.5
48 2 0.111945 0.340824 0.5
27 2 0.234064 0.47511 0.5
95 4 0.459169 0.411052 0.5
21 1 0.709439 0.370348 0.5
89 4 0.930392 0.462984 0.5
25 1 0.149979 0.471837 0.5
10 1 0.381525 0.426794 0.5
77 4 0.237441 0.545221 0.5
7 1 0.487901 0.520675 0.5
3 1 0.618928 0.410478 0.5
40 2 0.554119 0.632272 0.5
100 4 0.722183 0.473997 0.5
13 1 0.775064 0.471685 0.5
78 4 0.878906 0.460272 0.5
38 2 0.0534453 0.500752 0.5
69 3 0.174003 0.562196 0.5
16 1 0.362135 0.671785 0.5
79 4 0.291067 0.600304 0.5
61 3 0.633981 0.492108 0.5
42 2 0.85794 0.547015 0.5
4 1 0.988688 0.53092 0.5
11 1 0.136192 0.694485 0.5
15 1 0.060389 0.6059 0.5
39 2 0.257608 0.66149 0.5
18 1 0.66973 0.626028 0.5
33 2 0.799258 0.642399 0.5
5 1 0.883879 0.660019 0.5
82 4 0.975528 0.657383 0.5
19 1 0.0331479 0.813298 0.5
58 3 0.152302 0.805421 0.5
32 2 0.251377 0.774553 0.5
20 1 0.453583 0.737178 0.5
60 3 0.575333 0.668418 0.5
1 1 0.713077 0.751106 0.5
85 4 0.658617 0.860857 0.5
91 4 0.814538 0.751244 0.5
17 1 0.96637 0.717415 0.5
66 3 0.0657794 0.878474 0.5
44 2 0.318847 0.781977 0.5
52 3 0.489271 0.858484 0.5
86 4 0.52834 0.750124 0.5
8 1 0.579367 0.801093 0.5
57 3 0.746617 0.850793 0.5
23 1 0.868636 0.818422 0.5
71 3 0.168504 0.847487 0.5
99 4 0.299558 0.904562 0.5
92 4 0.489818 0.947998 0.5
96 4 0.395639 0.854596 0.5
34 2 0.687671 0.909354 0.5
6 1 0.765927 0.9233 0.5
45 2 0.932883 0.887799 0.5
22 1 0.0527986 0.949027 0.5
24 1 0.0933472 0.056108 0.5
49 2 0.140697 0.931202 0.5
73 3 0.265083 0.842745 0.5
51 3 0.405454 -2.2381e-05 0.5
93 4 0.358583 0.919764 0.5
41 2 0.601633 0.892131 0.5
94 4 0.879177 0.948668 0.5
ITEM: TIMESTEP
350
ITEM: NUMBER OF ATOMS
100
ITEM: BOX BOUNDS pp pp pp
-5.9142248730324178e+00 5.9142248730324178e+00
-5.9142248730324178e+00 5.9142248730324178e+00
-1.0000000000000001e-01 1.0000000000000001e-01
ITEM: ATOMS id type xs ys zs
64 3 0.940639 0.0808747 0.5
2 1 0.237598 0.998405 0.5
59 3 0.339962 0.0243393 0.5
56 3 0.53464 0.0345708 0.5
97 4 0.637368 0.970545 0.5
70 3 0.698658 0.99281 0.5
54 3 0.829888 0.958437 0.5
31 2 0.927713 0.00477915 0.5
90 4 0.0158141 0.0924246 0.5
43 2 0.085795 0.167691 0.5
84 4 0.182025 0.0884659 0.5
47 2 0.20413 0.192719 0.5
36 2 0.323842 0.15231 0.5
53 3 0.427436 0.0610056 0.5
62 3 0.444573 0.151065 0.5
28 2 0.561864 0.168089 0.5
14 1 0.620191 0.0511028 0.5
65 3 0.74599 0.247559 0.5
50 2 0.722028 0.094823 0.5
72 3 0.822632 0.0295044 0.5
63 3 0.0208362 0.199792 0.5
98 4 0.881083 0.124281 0.5
87 4 0.406681 0.209409 0.5
12 1 0.486687 0.223335 0.5
74 3 0.618768 0.20454 0.5
30 2 0.830705 0.219175 0.5
81 4 0.0884777 0.286314 0.5
88 4 0.121755 0.228227 0.5
68 3 0.279086 0.251552 0.5
46 2 0.507128 0.34682 0.5
35 2 0.784101 0.308243 0.5
76 4 0.663347 0.275449 0.5
67 3 0.909129 0.334597 0.5
75 3 0.927334 0.153812 0.5
83 4 0.0570056 0.353617 0.5
29 2 0.201682 0.34913 0.5
80 4 0.407542 0.344879 0.5
26 2 0.585688 0.277052 0.5
9 1 0.819402 0.406837 0.5
55 3 0.972426 0.30482 0.5
37 2 0.0138483 0.411764 0.5
48 2 0.10395 0.320358 0.5
27 2 0.241807 0.464164 0.5
95 4 0.449731 0.401142 0.5
21 1 0.690439 0.357875 0.5
89 4 0.93041 0.466904 0.5
25 1 0.159691 0.451749 0.5
10 1 0.390634 0.430542 0.5
77 4 0.230074 0.55336 0.5
7 1 0.507174 0.526324 0.5
3 1 0.609229 0.400662 0.5
40 2 0.535073 0.637837 0.5
100 4 0.722886 0.470631 0.5
13 1 0.776901 0.489782 0.5
78 4 0.878174 0.441576 0.5
38 2 0.0618186 0.488134 0.5
69 3 0.172206 0.573048 0.5
16 1 0.355853 0.669643 0.5
79 4 0.293125 0.601566 0.5
61 3 0.60938 0.491095 0.5
42 2 0.864295 0.533544 0.5
4 1 0.983805 0.52986 0.5
11 1 0.155017 0.694637 0.5
15 1 0.0723952 0.605599 0.5
39 2 0.262278 0.66625 0.5
18 1 0.663464 0.623665 0.5
33 2 0.77701 0.629238 0.5
5 1 0.881883 0.644632 0.5
82 4 0.978654 0.648095 0.5
19 1 0.0415371 0.815971 0.5
58 3 0.157322 0.812745 0.5
32 2 0.263001 0.778624 0.5
20 1 0.463828 0.748717 0.5
60 3 0.556669 0.680437 0.5
1 1 0.702368 0.74384 0.5
85 4 0.649219 0.874336 0.5
91 4 0.799259 0.754939 0.5
17 1 0.98261 0.716287 0.5
66 3 0.0607347 0.887767 0.5
44 2 0.329498 0.778155 0.5
52 3 0.492639 0.859337 0.5
86 4 0.53486 0.739608 0.5
8 1 0.579314 0.799335 0.5
57 3 0.74089 0.849512 0.5
23 1 0.85981 0.845398 0.5
71 3 0.192895 0.841729 0.5
99 4 0.290489 0.914687 0.5
92 4 0.501453 0.957219 0.5
96 4 0.393718 0.846373 0.5
34 2 0.686251 0.91635 0.5
6 1 0.75998 0.919142 0.5
45 2 0.939603 0.908622 0.5
22 1 0.0641166 0.958185 0.5
24 1 0.0912328 0.0711373 0.5
49 2 0.154605 0.939298 0.5
73 3 0.270692 0.828747 0.5
51 3 0.4025 0.992705 0.5
93 4 0.352453 0.905338 0.5
41 2 0.595574 0.876394 0.5
94 4 0.87865 0.934873 0.5
ITEM: TIMESTEP
400
ITEM: NUMBER OF ATOMS
100
ITEM: BOX BOUNDS pp pp pp
-5.9347569331351355e+00 5.9347569331351355e+00
-5.9347569331351355e+00 5.9347569331351355e+00
-1.0000000000000001e-01 1.0000000000000001e-01
ITEM: ATOMS id type xs ys zs
64 3 0.931487 0.100131 0.5
2 1 0.234098 0.989512 0.5
59 3 0.343806 0.0300099 0.5
56 3 0.53711 0.0327482 0.5
97 4 0.626895 0.961061 0.5
70 3 0.699198 1.00633 0.5
54 3 0.834623 0.955797 0.5
31 2 0.920651 0.990861 0.5
90 4 0.0209287 0.0946403 0.5
43 2 0.0905672 0.166164 0.5
84 4 0.188585 0.0916398 0.5
47 2 0.193961 0.21741 0.5
36 2 0.323236 0.150593 0.5
53 3 0.430815 0.0610139 0.5
62 3 0.437131 0.157272 0.5
28 2 0.544404 0.165526 0.5
14 1 0.609756 0.0481149 0.5
65 3 0.73436 0.25786 0.5
50 2 0.720976 0.0990998 0.5
72 3 0.825788 0.035048 0.5
63 3 0.0332158 0.222053 0.5
98 4 0.873556 0.120421 0.5
87 4 0.410437 0.216186 0.5
12 1 0.492812 0.242371 0.5
74 3 0.6227 0.211576 0.5
30 2 0.834568 0.212727 0.5
81 4 0.088848 0.279032 0.5
88 4 0.137509 0.226705 0.5
68 3 0.265164 0.253787 0.5
46 2 0.520104 0.355084 0.5
35 2 0.790037 0.310071 0.5
76 4 0.661152 0.280741 0.5
67 3 0.918658 0.354831 0.5
75 3 0.931033 0.150438 0.5
83 4 0.0571747 0.352629 0.5
29 2 0.192644 0.343666 0.5
80 4 0.418996 0.330989 0.5
26 2 0.574274 0.263932 0.5
9 1 0.819691 0.406261 0.5
55 3 0.980836 0.299742 0.5
37 2 0.000257381 0.387129 0.5
48 2 0.10367 0.306509 0.5
27 2 0.256572 0.452666 0.5
95 4 0.445628 0.392752 0.5
21 1 0.676037 0.347736 0.5
89 4 0.932167 0.468161 0.5
25 1 0.164502 0.43184 0.5
10 1 0.392388 0.440908 0.5
77 4 0.227064 0.560918 0.5
7 1 0.523461 0.530692 0.5
3 1 0.595376 0.391235 0.5
40 2 0.512028 0.63581 0.5
100 4 0.715488 0.464766 0.5
13 1 0.779186 0.513921 0.5
78 4 0.879775 0.423822 0.5
38 2 0.0741221 0.476848 0.5
69 3 0.167775 0.585053 0.5
16 1 0.357109 0.666914 0.5
79 4 0.296072 0.596887 0.5
61 3 0.587694 0.493939 0.5
42 2 0.8719 0.522406 0.5
4 1 0.975046 0.534343 0.5
11 1 0.172076 0.697106 0.5
15 1 0.0837669 0.607347 0.5
39 2 0.261887 0.673169 0.5
18 1 0.655335 0.61973 0.5
33 2 0.754253 0.61634 0.5
5 1 0.879889 0.631494 0.5
82 4 0.982504 0.632966 0.5
19 1 0.0489039 0.814422 0.5
58 3 0.155898 0.81406 0.5
32 2 0.266163 0.772361 0.5
20 1 0.466062 0.760206 0.5
60 3 0.545185 0.695766 0.5
1 1 0.690421 0.736822 0.5
85 4 0.643613 0.881976 0.5
91 4 0.786116 0.758145 0.5
17 1 0.998486 0.72026 0.5
66 3 0.0568782 0.895469 0.5
44 2 0.350632 0.772533 0.5
52 3 0.493314 0.861872 0.5
86 4 0.542168 0.728947 0.5
8 1 0.583319 0.793484 0.5
57 3 0.736188 0.839019 0.5
23 1 0.849637 0.864459 0.5
71 3 0.217859 0.843612 0.5
99 4 0.279633 0.924213 0.5
92 4 0.512091 0.964742 0.5
96 4 0.39398 0.837781 0.5
34 2 0.683883 0.923915 0.5
6 1 0.76022 0.91783 0.5
45 2 0.95491 0.925685 0.5
22 1 0.0689652 0.972897 0.5
24 1 0.092417 0.0818252 0.5
49 2 0.170431 0.944861 0.5
73 3 0.277175 0.826579 0.5
51 3 0.402578 0.978936 0.5
93 4 0.348803 0.892753 0.5
41 2 0.581627 0.868353 0.5
94 4 0.878256 0.921622 0.5
ITEM: TIMESTEP
450
ITEM: NUMBER OF ATOMS
100
ITEM: BOX BOUNDS pp pp pp
-5.8672262876979220e+00 5.8672262876979220e+00
-5.8672262876979220e+00 5.8672262876979220e+00
-1.0000000000000001e-01 1.0000000000000001e-01
ITEM: ATOMS id type xs ys zs
64 3 0.926541 0.109881 0.5
2 1 0.234093 0.989518 0.5
59 3 0.343656 0.0376447 0.5
56 3 0.533458 0.0326324 0.5
97 4 0.611156 0.951293 0.5
70 3 0.703124 0.0223423 0.5
54 3 0.836866 0.959032 0.5
31 2 0.915201 0.98608 0.5
90 4 0.0204556 0.097806 0.5
43 2 0.0959544 0.165084 0.5
84 4 0.197283 0.0950422 0.5
47 2 0.187264 0.238415 0.5
36 2 0.322626 0.148899 0.5
53 3 0.436225 0.0628514 0.5
62 3 0.429791 0.157748 0.5
28 2 0.527432 0.154682 0.5
14 1 0.602364 0.0512564 0.5
65 3 0.722006 0.262035 0.5
50 2 0.721224 0.106054 0.5
72 3 0.827658 0.04434 0.5
63 3 0.0403623 0.243982 0.5
98 4 0.857593 0.115967 0.5
87 4 0.408441 0.225925 0.5
12 1 0.494112 0.265311 0.5
74 3 0.632401 0.213423 0.5
30 2 0.839585 0.20483 0.5
81 4 0.0843187 0.264123 0.5
88 4 0.15078 0.225496 0.5
68 3 0.255961 0.258138 0.5
46 2 0.528454 0.3622 0.5
35 2 0.798873 0.312714 0.5
76 4 0.658205 0.282498 0.5
67 3 0.924529 0.373218 0.5
75 3 0.938775 0.157624 0.5
83 4 0.0575475 0.353616 0.5
29 2 0.188917 0.3347 0.5
80 4 0.428838 0.314584 0.5
26 2 0.565154 0.257371 0.5
9 1 0.814074 0.405061 0.5
55 3 0.989871 0.290858 0.5
37 2 0.98552 0.369232 0.5
48 2 0.109242 0.300409 0.5
27 2 0.276284 0.442397 0.5
95 4 0.44476 0.38437 0.5
21 1 0.667739 0.342912 0.5
89 4 0.93578 0.464558 0.5
25 1 0.166161 0.414526 0.5
10 1 0.389381 0.455773 0.5
77 4 0.227591 0.566099 0.5
7 1 0.533708 0.535476 0.5
3 1 0.581975 0.385886 0.5
40 2 0.48539 0.630626 0.5
100 4 0.704204 0.456225 0.5
13 1 0.77982 0.539728 0.5
78 4 0.885375 0.408363 0.5
38 2 0.0847578 0.467258 0.5
69 3 0.163913 0.596464 0.5
16 1 0.365569 0.662513 0.5
79 4 0.299385 0.587974 0.5
61 3 0.57237 0.495571 0.5
42 2 0.878364 0.511285 0.5
4 1 0.970398 0.541971 0.5
11 1 0.18354 0.702206 0.5
15 1 0.0903632 0.609639 0.5
39 2 0.260421 0.678208 0.5
18 1 0.642104 0.613963 0.5
33 2 0.734758 0.60674 0.5
5 1 0.877168 0.62172 0.5
82 4 0.986266 0.616721 0.5
19 1 0.0558323 0.81096 0.5
58 3 0.151524 0.812907 0.5
32 2 0.265069 0.758362 0.5
20 1 0.462158 0.771349 0.5
60 3 0.538675 0.703692 0.5
1 1 0.679006 0.72935 0.5
85 4 0.639795 0.88508 0.5
91 4 0.77529 0.761393 0.5
17 1 0.0124841 0.723475 0.5
66 3 0.0536555 0.902259 0.5
44 2 0.375328 0.765479 0.5
52 3 0.490269 0.866725 0.5
86 4 0.550373 0.722197 0.5
8 1 0.591694 0.786723 0.5
57 3 0.730772 0.822867 0.5
23 1 0.840355 0.869373 0.5
71 3 0.238906 0.852835 0.5
99 4 0.270595 0.930039 0.5
92 4 0.521452 0.968916 0.5
96 4 0.397038 0.831479 0.5
34 2 0.681591 0.931722 0.5
6 1 0.762048 0.920084 0.5
45 2 0.976745 0.936869 0.5
22 1 0.0710339 0.991303 0.5
24 1 0.0985027 0.0878769 0.5
49 2 0.182726 0.944698 0.5
73 3 0.28904 0.833081 0.5
51 3 0.404809 0.960693 0.5
93 4 0.34537 0.881758 0.5
41 2 0.564338 0.867686 0.5
94 4 0.880674 0.908565 0.5
ITEM: TIMESTEP
500
ITEM: NUMBER OF ATOMS
100
ITEM: BOX BOUNDS pp pp pp
-5.8434008280631815e+00 5.8434008280631815e+00
-5.8434008280631815e+00 5.8434008280631815e+00
-1.0000000000000001e-01 1.0000000000000001e-01
ITEM: ATOMS id type xs ys zs
64 3 0.923587 0.110628 0.5
2 1 0.237916 1.0016 0.5
59 3 0.341995 0.0456259 0.5
56 3 0.523345 0.0349807 0.5
97 4 0.591138 0.943961 0.5
70 3 0.709029 0.0367353 0.5
54 3 0.837028 0.968571 0.5
31 2 0.911126 0.989265 0.5
90 4 0.0146347 0.101552 0.5
43 2 0.100014 0.167037 0.5
84 4 0.207916 0.0987394 0.5
47 2 0.18643 0.255485 0.5
36 2 0.321411 0.147294 0.5
53 3 0.442308 0.0641329 0.5
62 3 0.421835 0.155831 0.5