LAMMPS data file.

    200 atoms
    314 bonds
   2996 angles
      0 dihedrals
      0 impropers
      1 atom types
    314 bond types
   2996 angle types
      0 dihedral types
      0 improper types
  -7.833703   7.833703 xlo xhi
  -7.833703   7.833703 ylo yhi
  -0.100000   0.100000 zlo zhi
0.0 0.0 0.0 xy xz yz

Masses # ['atom_id', 'mass']

1 1000000.0

Atoms # ['atomID', 'moleculeID', 'atomType', 'charge', 'x', 'y', 'z']

     77      1      1   0.000000  -7.049637  -7.582773   0.000000
    167      1      1   0.000000  -6.664428  -6.655456   0.000000
     18      1      1   0.000000  -5.603012  -6.908581   0.000000
     68      1      1   0.000000  -4.243002  -7.267320   0.000000
    118      1      1   0.000000  -3.146981  -6.989006   0.000000
    190      1      1   0.000000  -3.395120  -7.668715   0.000000
     32      1      1   0.000000  -1.942594  -6.891463   0.000000
     70      1      1   0.000000  -0.427487  -7.109203   0.000000
    168      1      1   0.000000   0.418712  -7.549793   0.000000
    153      1      1   0.000000   0.549653  -7.023655   0.000000
    161      1      1   0.000000   0.950008  -7.356237   0.000000
    151      1      1   0.000000   1.508806  -7.217444   0.000000
    200      1      1   0.000000   1.096317  -6.852620   0.000000
    186      1      1   0.000000   1.312867  -7.724774   0.000000
    154      1      1   0.000000   0.802118   7.795991   0.000000
    182      1      1   0.000000   1.966553  -7.008794   0.000000
    121      1      1   0.000000   3.297343  -7.815966   0.000000
     86      1      1   0.000000   4.302639  -7.214007   0.000000
     61      1      1   0.000000   5.729642  -7.580173   0.000000
    155      1      1   0.000000   6.634080  -7.283629   0.000000
    112      1      1   0.000000   7.433190  -7.277448   0.000000
    170      1      1   0.000000   6.767994  -7.718265   0.000000
     88      1      1   0.000000  -7.575965  -6.355530   0.000000
     72      1      1   0.000000  -6.456731  -5.678615   0.000000
    149      1      1   0.000000  -5.304134  -5.619851   0.000000
    132      1      1   0.000000  -4.464086  -6.083483   0.000000
    164      1      1   0.000000  -3.790985  -6.486593   0.000000
     13      1      1   0.000000  -3.142899  -5.675844   0.000000
    181      1      1   0.000000  -1.030398  -6.398291   0.000000
      9      1      1   0.000000  -1.567639  -5.416651   0.000000
    135      1      1   0.000000  -0.476629  -5.922357   0.000000
     78      1      1   0.000000   0.543774  -6.099130   0.000000
    130      1      1   0.000000   1.649718  -6.332442   0.000000
     20      1      1   0.000000   2.956293  -6.597035   0.000000
    174      1      1   0.000000   2.194952  -5.802532   0.000000
     98      1      1   0.000000   4.166683  -5.785607   0.000000
     82      1      1   0.000000   5.275813  -6.401830   0.000000
     48      1      1   0.000000   6.639127  -6.240011   0.000000
    178      1      1   0.000000  -7.352438  -5.402166   0.000000
     31      1      1   0.000000  -7.187889  -4.290779   0.000000
    102      1      1   0.000000  -5.835698  -4.752719   0.000000
     25      1      1   0.000000  -4.457310  -4.698773   0.000000
     93      1      1   0.000000  -3.044947  -4.224175   0.000000
    176      1      1   0.000000  -2.374606  -4.767257   0.000000
     45      1      1   0.000000  -0.051053  -4.704205   0.000000
     63      1      1   0.000000   1.474528  -5.154521   0.000000
     69      1      1   0.000000   2.928664  -5.140234   0.000000
     44      1      1   0.000000   4.274141  -4.337415   0.000000
     74      1      1   0.000000   5.497927  -5.155467   0.000000
    188      1      1   0.000000   6.409669  -5.171997   0.000000
    171      1      1   0.000000   6.915383  -5.231580   0.000000
    139      1      1   0.000000   7.617847  -5.276827   0.000000
    163      1      1   0.000000  -7.665172  -3.245443   0.000000
     56      1      1   0.000000  -5.921712  -3.666676   0.000000
    105      1      1   0.000000  -4.899019  -3.554148   0.000000
     21      1      1   0.000000  -3.806589  -3.056567   0.000000
    117      1      1   0.000000  -2.481178  -3.181999   0.000000
      4      1      1   0.000000  -1.532072  -3.943404   0.000000
      8      1      1   0.000000  -0.306683  -2.993069   0.000000
     40      1      1   0.000000   1.088500  -3.721850   0.000000
    148      1      1   0.000000   2.203749  -4.251349   0.000000
    146      1      1   0.000000   3.069794  -3.975950   0.000000
    101      1      1   0.000000   3.587743  -3.197009   0.000000
    113      1      1   0.000000   5.055152  -3.192829   0.000000
    192      1      1   0.000000   4.315964  -3.231116   0.000000
    147      1      1   0.000000   5.541968  -4.028227   0.000000
    103      1      1   0.000000   6.034740  -3.186432   0.000000
     33      1      1   0.000000   6.822189  -4.182521   0.000000
    172      1      1   0.000000   7.612673  -3.528876   0.000000
     49      1      1   0.000000  -6.861750  -2.579622   0.000000
     42      1      1   0.000000  -5.271825  -2.304417   0.000000
     85      1      1   0.000000  -2.696827  -2.112415   0.000000
    150      1      1   0.000000  -1.588587  -2.629919   0.000000
    187      1      1   0.000000  -1.795165  -1.917522   0.000000
    179      1      1   0.000000  -0.109284  -1.892256   0.000000
    198      1      1   0.000000   0.315989  -2.095250   0.000000
     75      1      1   0.000000   1.144657  -2.329149   0.000000
     59      1      1   0.000000   2.347107  -3.026131   0.000000
     95      1      1   0.000000   3.289043  -2.174220   0.000000
    107      1      1   0.000000   4.387695  -2.494247   0.000000
     46      1      1   0.000000   5.645805  -1.960611   0.000000
     47      1      1   0.000000   7.158922  -2.480821   0.000000
     39      1      1   0.000000  -7.622830  -1.151011   0.000000
     52      1      1   0.000000  -6.203333  -1.195483   0.000000
    136      1      1   0.000000  -5.101618  -1.002160   0.000000
      7      1      1   0.000000  -3.916760  -1.418085   0.000000
    199      1      1   0.000000  -3.136010  -0.820183   0.000000
     36      1      1   0.000000  -2.131247  -0.829861   0.000000
     80      1      1   0.000000  -0.935789  -1.595622   0.000000
     27      1      1   0.000000   0.431434  -0.944275   0.000000
    173      1      1   0.000000   1.449974  -1.466180   0.000000
    126      1      1   0.000000   2.169455  -1.810366   0.000000
     94      1      1   0.000000   1.840903  -0.632693   0.000000
     54      1      1   0.000000   3.038143  -0.984573   0.000000
     83      1      1   0.000000   4.279918  -1.329051   0.000000
     58      1      1   0.000000   6.690957  -0.802759   0.000000
    109      1      1   0.000000  -6.755252  -0.163518   0.000000
     90      1      1   0.000000  -5.576070   0.036922   0.000000
    114      1      1   0.000000  -4.466939  -0.229284   0.000000
     53      1      1   0.000000  -3.329927   0.076558   0.000000
     55      1      1   0.000000  -0.852923  -0.212041   0.000000
     67      1      1   0.000000   0.070840   0.584417   0.000000
    127      1      1   0.000000   1.072657   0.233324   0.000000
    137      1      1   0.000000   2.771012   0.073780   0.000000
    111      1      1   0.000000   1.926163   0.537672   0.000000
     51      1      1   0.000000   3.909113   0.046984   0.000000
     11      1      1   0.000000   5.289738  -0.433219   0.000000
     14      1      1   0.000000   7.726235   0.447070   0.000000
     76      1      1   0.000000  -6.496833   0.995589   0.000000
     81      1      1   0.000000  -5.177896   1.274538   0.000000
    123      1      1   0.000000  -4.267668   0.703058   0.000000
    184      1      1   0.000000  -3.579705   1.075568   0.000000
    124      1      1   0.000000  -4.056567   1.699371   0.000000
    156      1      1   0.000000  -3.062537   0.971352   0.000000
     24      1      1   0.000000  -1.963086   0.739060   0.000000
    169      1      1   0.000000  -0.872005   0.891933   0.000000
     71      1      1   0.000000  -0.377018   1.754844   0.000000
     22      1      1   0.000000   1.174764   1.621571   0.000000
     28      1      1   0.000000   2.888639   1.311448   0.000000
    125      1      1   0.000000   4.128137   1.132450   0.000000
    129      1      1   0.000000   4.929574   0.738175   0.000000
     38      1      1   0.000000   6.236238   0.708403   0.000000
    189      1      1   0.000000   6.191266   1.712211   0.000000
    134      1      1   0.000000   7.013333   1.722135   0.000000
      6      1      1   0.000000  -7.475141   2.021197   0.000000
     43      1      1   0.000000  -5.980713   2.455394   0.000000
    145      1      1   0.000000  -4.689107   2.359487   0.000000
    128      1      1   0.000000  -3.762656   2.734836   0.000000
    100      1      1   0.000000  -2.954762   1.890036   0.000000
     92      1      1   0.000000  -1.623729   2.060151   0.000000
    159      1      1   0.000000  -0.721600   2.621852   0.000000
    193      1      1   0.000000  -0.126246   2.692984   0.000000
    185      1      1   0.000000   0.349206   2.390047   0.000000
    196      1      1   0.000000   1.548452   2.596257   0.000000
    110      1      1   0.000000   2.276136   2.448572   0.000000
    160      1      1   0.000000   1.792054   3.033187   0.000000
    197      1      1   0.000000   3.984970   1.805695   0.000000
      5      1      1   0.000000   3.561829   2.719672   0.000000
     19      1      1   0.000000   5.110094   2.023946   0.000000
    138      1      1   0.000000   6.299019   2.392070   0.000000
      2      1      1   0.000000  -7.045874   3.627715   0.000000
    165      1      1   0.000000  -5.942426   3.597097   0.000000
     35      1      1   0.000000  -4.840874   3.621072   0.000000
     87      1      1   0.000000  -3.490493   3.853377   0.000000
     79      1      1   0.000000  -2.505551   3.129260   0.000000
    144      1      1   0.000000  -1.356104   3.067147   0.000000
    108      1      1   0.000000  -0.487016   3.363152   0.000000
     26      1      1   0.000000   0.798285   3.373934   0.000000
      3      1      1   0.000000   2.442581   3.845514   0.000000
    140      1      1   0.000000   3.718431   3.969593   0.000000
     73      1      1   0.000000   4.788756   3.443550   0.000000
    115      1      1   0.000000   5.842987   3.241224   0.000000
    166      1      1   0.000000   6.307090   3.861068   0.000000
      1      1      1   0.000000   7.175848   3.214771   0.000000
     89      1      1   0.000000  -7.499911   5.009296   0.000000
    157      1      1   0.000000  -6.632167   4.595769   0.000000
    104      1      1   0.000000  -5.906935   4.361986   0.000000
     99      1      1   0.000000  -6.275453   5.449782   0.000000
     30      1      1   0.000000  -4.864542   5.211561   0.000000
    175      1      1   0.000000  -4.063459   4.538079   0.000000
    131      1      1   0.000000  -3.508159   5.105554   0.000000
    116      1      1   0.000000  -2.681384   4.522509   0.000000
     23      1      1   0.000000  -1.494010   4.303096   0.000000
    122      1      1   0.000000  -0.234566   4.283655   0.000000
     65      1      1   0.000000   0.682094   4.844701   0.000000
    195      1      1   0.000000   1.464327   4.328822   0.000000
     37      1      1   0.000000   2.068883   5.343608   0.000000
     84      1      1   0.000000   3.451637   5.077040   0.000000
    133      1      1   0.000000   4.480713   4.525167   0.000000
     60      1      1   0.000000   5.633527   4.510533   0.000000
    191      1      1   0.000000   6.381902   5.473783   0.000000
     97      1      1   0.000000   6.926224   4.642589   0.000000
     50      1      1   0.000000  -7.083981   6.536184   0.000000
    152      1      1   0.000000  -5.591292   6.031781   0.000000
    177      1      1   0.000000  -5.947075   6.402826   0.000000
    106      1      1   0.000000  -5.101365   6.526925   0.000000
     15      1      1   0.000000  -3.817663   6.418709   0.000000
     34      1      1   0.000000  -2.302743   5.745790   0.000000
     16      1      1   0.000000  -0.618694   5.603644   0.000000
     57      1      1   0.000000   0.834894   6.108620   0.000000
     29      1      1   0.000000   3.278998   6.562776   0.000000
     17      1      1   0.000000   4.738779   5.748286   0.000000
    180      1      1   0.000000   5.838892   5.460914   0.000000
     10      1      1   0.000000   6.042499   6.586818   0.000000
     66      1      1   0.000000   7.254770   5.928255   0.000000
     64      1      1   0.000000  -5.922367   7.361759   0.000000
    120      1      1   0.000000  -4.821489   7.452045   0.000000
    194      1      1   0.000000  -4.109617   7.453570   0.000000
    162      1      1   0.000000  -3.644108   7.553397   0.000000
     12      1      1   0.000000  -2.529901   7.356568   0.000000
    141      1      1   0.000000  -1.374420   6.688866   0.000000
    143      1      1   0.000000  -1.255076   7.687124   0.000000
     41      1      1   0.000000  -0.123713   7.141739   0.000000
    142      1      1   0.000000   1.199958   7.182301   0.000000
    119      1      1   0.000000   1.956582   6.600495   0.000000
     62      1      1   0.000000   2.216188   7.721057   0.000000
    183      1      1   0.000000   3.909594   7.521708   0.000000
     96      1      1   0.000000   4.715473   7.197815   0.000000
    158      1      1   0.000000   6.498073   7.532617   0.000000
     91      1      1   0.000000   7.422669   7.280540   0.000000

Bond Coeffs # ['bondID', 'bondCoeff', 'd']

      1   3.389539   0.543162
      2   0.381654   1.618695
      3   0.839298   1.091545
      4   0.921096   1.041952
      5   0.442375   1.503505
      6   0.411021   1.559796
      7   2.061022   0.696560
      8   0.966671   1.017093
      9   0.436989   1.512741
     10   0.693967   1.200412
     11   0.361641   1.662880
     12   0.583170   1.309491
     13   0.472024   1.455519
     14   0.538542   1.362668
     15   0.771710   1.138343
     16   1.692469   0.768670
     17   0.579762   1.313334
     18   0.471025   1.457062
     19   0.425690   1.532687
     20   1.498889   0.816799
     21   0.371049   1.641664
     22   0.571379   1.322933
     23   0.918136   1.043630
     24   2.018151   0.703920
     25   0.880809   1.065514
     26   1.005932   0.997047
     27   1.479524   0.822127
     28   1.138023   0.937399
     29   0.838009   1.092385
     30   0.675987   1.216273
     31   1.076467   0.963828
     32   0.637594   1.252356
     33   0.440909   1.506002
     34   0.757951   1.148628
     35   2.067930   0.695396
     36   0.565175   1.330174
     37   0.812401   1.109468
     38   0.691722   1.202359
     39   0.438962   1.509338
     40   1.565888   0.799134
     41   0.785786   1.128100
     42   0.763160   1.144701
     43   0.406552   1.568346
     44   0.843243   1.088989
     45   0.763677   1.144314
     46   1.175119   0.922485
     47   0.747345   1.156750
     48   0.486907   1.433102
     49   0.750789   1.154094
     50   0.591633   1.300092
     51   0.564191   1.331333
     52   0.666611   1.224796
     53   1.002651   0.998677
     54   0.791920   1.123723
     55   0.557636   1.339136
     56   0.646585   1.243619
     57   0.606981   1.283550
     58   1.010480   0.994801
     59   0.529122   1.374745
     60   0.990448   1.004811
     61   1.325649   0.868532
     62   3.401742   0.542187
     63   0.698985   1.196096
     64   0.907844   1.049529
     65   0.417117   1.548357
     66   0.815897   1.107089
     67   0.861380   1.077463
     68   2.110509   0.688345
     69   1.722305   0.761982
     70   0.668248   1.223295
     71   0.854916   1.081529
     72   1.973307   0.711873
     73   0.587955   1.304151
     74   1.069657   0.966892
     75   1.032584   0.984096
     76   1.348799   0.861046
     77   0.977042   1.011681
     78   0.823730   1.101812
     79   1.085947   0.959612
     80   0.932046   1.035813
     81   0.825850   1.100397
     82   4.411817   0.476092
     83   1.155957   0.930099
     84   0.578558   1.314700
     85   1.993273   0.708299
     86   0.907372   1.049802
     87   0.576553   1.316984
     88   0.332318   1.734696
     89   1.792639   0.746885
     90   2.781590   0.599589
     91   1.088826   0.958343
     92   1.148845   0.932973
     93   0.656104   1.234564
     94   0.475810   1.449717
     95   1.042065   0.979608
     96   0.798565   1.119038
     97   0.637602   1.252349
     98   0.468007   1.461752
     99   1.097628   0.954492
    100   0.864921   1.075256
    101   0.616965   1.273121
    102   0.630189   1.259693
    103   0.912982   1.046571
    104   0.604223   1.286475
    105   0.612922   1.277313
    106   0.530557   1.372884
    107   0.763469   1.144469
    108   0.550235   1.348112
    109   0.572435   1.321712
    110   1.875561   0.730188
    111   0.634163   1.255739
    112   0.418938   1.544989
    113   0.917722   1.043865
    114   0.786101   1.127874
    115   0.474201   1.452174
    116   0.496152   1.419687
    117   0.601406   1.289485
    118   0.721325   1.177428
    119   0.911375   1.047494
    120   0.782750   1.130286
    121   1.057755   0.972316
    122   0.596934   1.294305
    123   0.495798   1.420194
    124   0.567643   1.327280
    125   0.684903   1.208330
    126   3.541476   0.531383
    127   0.730302   1.170170
    128   4.308617   0.481760
    129   1.168775   0.924985
    130   3.992951   0.500441
    131   0.561494   1.334527
    132   0.492376   1.425120
    133   3.996000   0.500250
    134   1.012996   0.993565
    135   0.472380   1.454970
    136   0.790648   1.124627
    137   0.320484   1.766431
    138   0.695477   1.199109
    139   0.902297   1.052750
    140   0.781129   1.131459
    141   0.863132   1.076369
    142   0.685872   1.207476
    143   0.496078   1.419794
    144   0.365575   1.653909
    145   0.705125   1.190877
    146   0.537505   1.363982
    147   1.023572   0.988418
    148   3.841975   0.510179
    149   0.819615   1.104575
    150   1.188004   0.917468
    151   0.761303   1.146097
    152   1.343554   0.862725
    153   0.602554   1.288255
    154   0.799790   1.118180
    155   1.042897   0.979218
    156   4.059266   0.496337
    157   0.410462   1.560859
    158   0.516088   1.391997
    159   0.575550   1.318130
    160   0.665831   1.225513
    161   0.508951   1.401722
    162   0.944677   1.028865
    163   0.504270   1.408214
    164   0.507528   1.403686
    165   0.627991   1.261895
    166   1.070460   0.966529
    167   0.405362   1.570646
    168   0.662407   1.228676
    169   1.034065   0.983391
    170   1.729851   0.760319
    171   1.076395   0.963861
    172   1.098694   0.954029
    173   0.472832   1.454275
    174   1.254537   0.892808
    175   1.094470   0.955869
    176   0.585392   1.307003
    177   1.186336   0.918113
    178   1.654109   0.777531
    179   0.639951   1.250047
    180   0.989351   1.005367
    181   1.202579   0.911892
    182   0.758466   1.148238
    183   3.146378   0.563760
    184   0.977964   1.011204
    185   0.770643   1.139130
    186   0.593192   1.298381
    187   3.592943   0.527564
    188   0.619337   1.270680
    189   0.604628   1.286044
    190   0.602167   1.288670
    191   0.563331   1.332349
    192   0.721570   1.177228
    193   0.460464   1.473676
    194   0.632468   1.257421
    195   0.730159   1.170284
    196   0.839858   1.091182
    197   0.669140   1.222479
    198   0.689489   1.204305
    199   0.703079   1.192609
    200   0.990440   1.004814
    201   0.525524   1.379442
    202   3.635885   0.524439
    203   0.334076   1.730125
    204   1.909939   0.723586
    205   0.929955   1.036977
    206   0.691543   1.202515
    207   0.525922   1.378921
    208   0.709063   1.187565
    209   0.485717   1.434856
    210   1.633835   0.782341
    211   0.377899   1.626717
    212   1.228721   0.902139
    213   1.179905   0.920611
    214   2.110793   0.688299
    215   0.623926   1.265999
    216   0.906054   1.050565
    217   0.560806   1.335345
    218   0.943032   1.029762
    219   0.758089   1.148523
    220   1.000804   0.999598
    221   0.457511   1.478424
    222   0.476196   1.449129
    223   0.511885   1.397699
    224   0.350112   1.690038
    225   0.633944   1.255957
    226   0.514729   1.393833
    227   1.733588   0.759499
    228   4.503212   0.471236
    229   0.985801   1.007176
    230   1.825268   0.740179
    231   1.169891   0.924543
    232   0.468406   1.461130
    233   1.039370   0.980878
    234   0.799265   1.118548
    235   0.712267   1.184891
    236   1.193413   0.915387
    237   1.296848   0.878123
    238   0.815522   1.107343
    239   3.784206   0.514059
    240   0.395229   1.590654
    241   0.479918   1.443498
    242   0.505267   1.406823
    243   0.964131   1.018432
    244   0.426810   1.530674
    245   1.624530   0.784578
    246   0.454222   1.483767
    247   0.446984   1.495733
    248   0.755828   1.150240
    249   0.549400   1.349135
    250   0.799516   1.118372
    251   0.657155   1.233576
    252   0.602050   1.288795
    253   0.750799   1.154086
    254   0.521521   1.384726
    255   0.579205   1.313965
    256   0.532624   1.370217
    257   0.706311   1.189877
    258   0.763875   1.144166
    259   0.470930   1.457209
    260   0.579909   1.313168
    261   0.570207   1.324291
    262   0.984130   1.008031
    263   3.016418   0.575777
    264   0.467934   1.461867
    265   0.716704   1.181218
    266   4.834621   0.454798
    267   3.951524   0.503058
    268   0.918438   1.043458
    269   0.768617   1.140631
    270   1.016753   0.991727
    271   0.754598   1.151177
    272   0.360720   1.665003
    273   1.824411   0.740353
    274   0.832690   1.095868
    275   0.752335   1.152908
    276   3.856577   0.509212
    277   1.217879   0.906145
    278   0.646974   1.243244
    279   0.766312   1.142345
    280   0.676494   1.215817
    281   0.754667   1.151124
    282   1.062329   0.970221
    283   1.813781   0.742519
    284   1.138927   0.937027
    285   1.210831   0.908779
    286   1.187441   0.917686
    287   1.082270   0.961241
    288   1.586330   0.793969
    289   1.881578   0.729019
    290   0.842540   1.089444
    291   0.777568   1.134046
    292   1.667784   0.774337
    293   0.901541   1.053191
    294   3.297682   0.550675
    295   0.852921   1.082793
    296   0.329552   1.741960
    297   0.907116   1.049950
    298   0.932426   1.035602
    299   1.705569   0.765712
    300   3.480919   0.535986
    301   1.100146   0.953399
    302   0.865771   1.074728
    303   0.726204   1.173467
    304   0.488420   1.430880
    305   0.727022   1.172806
    306   1.817576   0.741744
    307   0.823840   1.101738
    308   0.839935   1.091132
    309   0.596144   1.295163
    310   0.357864   1.671633
    311   0.627175   1.262716
    312   0.950465   1.025727
    313   0.887387   1.061557
    314   0.923310   1.040702

Bonds # ['ID', 'type', 'atom1', 'atom2']

         1         1       191       180
         2         2        49        39
         3         3        54       137
         4         4        92       144
         5         5         2         1
         6         6        46        58
         7         7       152       106
         8         8       149       102
         9         9        14        38
        10        10       105        21
        11        11         6         2
        12        12        31       139
        13        13        19        73
        14        14        66        91
        15        15       163        47
        16        16       186       142
        17        17        42       136
        18        18        20        69
        19        19        61        10
        20        20       118       164
        21        21        14         6
        22        22        18       149
        23        23       155        48
        24        24       171       139
        25        25       101        95
        26        26       166        97
        27        27       189       134
        28        28        72       178
        29        29        48       188
        30        30       134         6
        31        31       137       111
        32        32        28       125
        33        33        65        16
        34        34        75       126
        35        35       121       183
        36        36       141        41
        37        37       112        91
        38        38       138         1
        39        39        56        42
        40        40       155       112
        41        41        74       147
        42        42        50       177
        43        43        46        11
        44        44       121        62
        45        45        95       107
        46        46        85       187
        47        47       198        27
        48        48        18        64
        49        49        72       149
        50        50        90        81
        51        51        21       117
        52        52        57       119
        53        53       167        72
        54        54       156        24
        55        55        77        64
        56        56       144        23
        57        57        71        92
        58        58       169        71
        59        59       122        16
        60        60       199        36
        61        61       183        96
        62        62       168       153
        63        63       109        90
        64        64       117       150
        65        65        76        43
        66        66        44       192
        67        67       190        12
        68        68       189       138
        69        69       157       104
        70        70        77       112
        71        71       185        26
        72        72       120       194
        73        73       105        42
        74        74       113       147
        75        75       191        66
        76        76       198        75
        77        77       131       116
        78        78       165        35
        79        79       167        88
        80        80         9       176
        81        81        20       174
        82        82       194       162
        83        83       186        62
        84        84         4       150
        85        85       178       139
        86        86        10       158
        87        87        12       143
        88        88        33        47
        89        89       182       130
        90        90       159       193
        91        91       158        91
        92        92        71       159
        93        93        40       148
        94        94        17        96
        95        95       113       103
        96        96       181         9
        97        97       101        59
        98        98        51        11
        99        99       108       122
       100       100        15       194
       101       101        65        57
       102       102         5       140
       103       103        30       175
       104       104       115        60
       105       105        38       134
       106       106        82        48
       107       107        27       173
       108       108        76        81
       109       109        86        96
       110       110       181       135
       111       111       136         7
       112       112        14        76
       113       113        22       196
       114       114        22       185
       115       115        98        44
       116       116        36        80
       117       117       147        33
       118       118       114        53
       119       119        61       170
       120       120        78       130
       121       121        60       180
       122       122        89        97
       123       123        39        52
       124       124       103        47
       125       125       118        32
       126       126       186       154
       127       127       107        83
       128       128       163       172
       129       129       156       100
       130       130       168       154
       131       131        12       141
       132       132        83        51
       133       133       196       160
       134       134       191        97
       135       135        13        93
       136       136        73       133
       137       137        25        21
       138       138        81       124
       139       139         2       157
       140       140       162        12
       141       141       124       128
       142       142       116        23
       143       143        36        55
       144       144        23        34
       145       145       130        63
       146       146        24        92
       147       147       174        69
       148       148       190       162
       149       149        64       120
       150       150       199        53
       151       151       197        19
       152       152        93       176
       153       153       106        15
       154       154       124       100
       155       155        88       178
       156       156       170       158
       157       157        28         5
       158       158       127        22
       159       159       100        79
       160       160        11       129
       161       161        85        36
       162       162        56       105
       163       163        37        84
       164       164        85         7
       165       165        37       119
       166       166       106       120
       167       167        27        67