ITEM: TIMESTEP
912
ITEM: NUMBER OF ATOMS
100
ITEM: BOX BOUNDS xy xz yz pp pp pp
-5.4771883278888644e+00 5.4771883278888644e+00 0.0000000000000000e+00
-5.4776616618645795e+00 5.4776616618645795e+00 0.0000000000000000e+00
-1.0000000000000001e-01 1.0000000000000001e-01 0.0000000000000000e+00
ITEM: ATOMS id x y z vx vy vz
62 -5.00189 -5.06763 -6.3319e-10 7.19399e-07 -8.10323e-10 -8.23114e-09
29 -3.89796 -4.50038 -5.16823e-09 3.95975e-07 2.19237e-06 2.83764e-09
48 -2.95211 -5.19356 -1.41996e-09 2.11509e-06 -1.32868e-06 -3.46718e-09
8 -1.80309 -4.53957 4.37986e-09 -8.41173e-07 3.40891e-08 6.86501e-09
6 0.341837 -4.60467 4.27728e-09 -1.55965e-06 -1.27725e-06 1.09116e-09
91 1.25118 -5.07558 -1.36038e-09 -8.93733e-07 -1.39666e-06 -4.74961e-09
68 2.07378 -4.52863 2.71035e-10 1.31188e-06 -1.08824e-06 1.61833e-09
79 2.83738 -5.09332 -1.39662e-10 -4.40324e-06 1.64188e-07 6.21689e-09
84 3.7182 -4.86673 2.86509e-09 5.12033e-07 1.55346e-06 -1.04102e-08
45 4.74242 -5.29143 8.62394e-10 -3.77701e-07 -2.11626e-06 6.33309e-09
82 5.21574 -4.39079 2.20622e-11 2.83608e-06 -1.9679e-07 8.27203e-09
74 -4.85395 -4.00466 6.45343e-09 2.82783e-06 -1.25485e-06 6.4473e-09
98 -4.00988 -3.44807 -1.07554e-10 -3.25853e-06 1.02375e-07 -4.59655e-09
10 -2.85937 -3.56113 3.33824e-10 9.18578e-07 -6.25228e-07 6.81346e-09
25 -1.49983 -3.15865 2.50906e-09 -2.86683e-07 7.37687e-07 -4.82703e-09
69 -0.690014 -4.14119 -1.10502e-09 -3.9836e-08 2.01567e-06 -1.04139e-08
38 -0.051421 -3.29318 1.76615e-10 3.07343e-07 -1.01748e-06 1.09346e-08
67 1.23509 -3.93807 3.89402e-09 6.90904e-09 2.17767e-06 -5.50902e-09
54 3.05476 -4.0835 -7.49672e-10 -6.69694e-07 5.68956e-07 6.01711e-09
9 4.23837 -3.94733 2.06718e-09 -2.04225e-06 4.43177e-07 5.75758e-09
86 5.26643 -3.56313 4.26834e-10 -8.89335e-09 1.46757e-06 2.20227e-09
31 -4.91939 -2.85102 6.96329e-09 3.0393e-06 -1.10174e-06 3.21876e-09
49 -3.69926 -2.49887 4.75907e-09 -3.1608e-06 3.82144e-07 5.21428e-09
56 -2.56958 -2.42145 1.50017e-09 3.20235e-06 2.95653e-07 -2.18257e-09
96 -0.627597 -2.40026 -1.9598e-10 -4.07547e-06 1.56729e-07 1.70692e-09
76 0.973452 -2.9894 -8.57177e-10 5.29253e-07 1.26086e-06 -3.99062e-09
21 2.20124 -3.20017 4.91999e-09 6.77594e-07 -1.43646e-06 9.8284e-09
52 3.50307 -2.96316 -3.59034e-10 -2.74486e-07 -5.81467e-08 -6.832e-09
32 4.71964 -2.72533 1.05778e-08 1.3227e-07 1.20278e-06 4.82328e-09
88 -4.45266 -1.91479 1.38232e-09 4.71007e-07 -1.54956e-06 7.73063e-09
50 5.45148 -1.66743 4.51621e-10 -3.52389e-06 1.02115e-06 -7.53369e-09
97 -3.61127 -1.53736 -5.36123e-09 3.33299e-06 1.04954e-06 -4.00981e-09
47 -2.5984 -1.2895 3.86333e-09 -2.35483e-07 -3.99661e-07 1.26082e-09
61 -1.60324 -1.87278 5.28702e-09 -2.25425e-07 -1.98565e-06 4.10149e-09
40 -0.542229 -1.4087 -2.1444e-09 -6.91092e-07 -5.06742e-08 -9.35486e-09
63 0.334048 -2.20305 2.52831e-09 3.70059e-06 5.18994e-07 1.65321e-09
59 0.527866 -1.05843 -8.23867e-10 -4.20297e-07 4.07059e-07 5.1455e-09
3 1.44905 -1.941 -3.68169e-09 -3.1935e-06 1.05327e-06 -4.71705e-09
35 2.81611 -2.01985 -3.38777e-09 4.07742e-07 -7.77656e-07 -4.16306e-09
23 4.02664 -1.72809 1.47693e-10 3.52947e-06 1.3274e-06 -6.35007e-09
51 -4.43791 -1.01054 -9.26206e-10 -3.41472e-06 -1.24965e-06 2.4701e-09
26 -5.33325 -0.368238 4.00937e-09 2.88445e-07 -4.09558e-07 9.94302e-11
94 -3.47827 -0.647272 4.97506e-09 7.75516e-07 1.86628e-06 9.91205e-09
13 -1.52787 -0.59172 -6.71265e-10 -2.49833e-06 -7.61986e-07 -3.69616e-09
36 -0.31214 -0.165231 -1.61343e-09 8.25622e-09 6.65564e-07 1.10203e-08
92 1.48716 -0.818125 -5.81501e-09 -5.82817e-07 1.83002e-06 -7.74961e-09
78 2.26914 -1.11114 -5.52328e-09 -6.97162e-07 -2.14514e-06 7.01445e-09
85 3.06778 -0.913185 4.51066e-09 -1.21277e-07 -5.1082e-08 9.32392e-09
53 2.2005 -0.0341391 -2.53147e-09 -4.00452e-06 -1.15637e-06 -1.75572e-09
83 3.86254 -0.673425 7.62599e-10 3.01794e-07 1.05274e-06 3.33594e-09
99 4.73038 -0.8946 -9.25839e-10 1.37512e-06 -2.30332e-06 -7.79429e-09
19 -4.22687 0.175639 -2.28806e-09 -5.07053e-07 1.37967e-06 1.48479e-09
87 -3.51675 1.04156 1.50345e-09 1.65869e-06 -1.78541e-06 -5.40739e-09
4 -2.67497 0.199143 6.5142e-09 1.41536e-06 -4.51497e-07 -8.14527e-09
7 -1.26879 0.880644 -5.27885e-09 1.65013e-06 1.54295e-06 -4.49894e-10
64 -0.0775736 0.934133 5.1279e-09 -3.00819e-06 -5.2811e-07 -3.24909e-09
5 0.98553 0.098141 1.89521e-09 2.56199e-06 1.61241e-06 -5.10668e-09
100 1.81278 0.871156 5.48231e-09 -1.39475e-06 -1.03952e-06 1.8901e-09
60 2.68274 0.915735 -3.7082e-09 4.55158e-06 -1.86561e-08 -5.29391e-09
70 3.31559 0.0750825 -9.42253e-10 1.88199e-07 -1.42085e-07 8.44526e-09
17 5.42953 1.00793 3.53958e-09 -6.66355e-07 -8.85287e-07 1.12885e-09
41 4.48899 0.122638 -2.80817e-10 3.7738e-06 -2.6e-07 -9.65507e-09
77 -4.3138 1.27716 3.90363e-09 -8.14029e-07 1.52776e-06 -4.57899e-09
11 -3.64471 2.16245 2.98702e-09 -1.6438e-06 -1.13871e-06 -4.00043e-09
46 -2.53179 1.54858 3.68682e-10 2.56069e-06 1.23741e-06 1.06029e-08
39 -1.36369 2.23008 6.6041e-09 -3.23999e-06 8.33534e-07 -7.13736e-10
28 -0.285507 1.89686 -5.17659e-09 2.65723e-06 -2.84235e-07 -7.60881e-09
72 0.886939 1.40439 -2.52715e-09 2.01448e-07 2.14931e-06 -1.10125e-08
73 1.87654 1.77527 -8.64589e-09 -3.40511e-06 -1.00778e-06 3.00006e-09
33 3.0002 2.03392 -6.66932e-09 1.07162e-06 -2.2977e-07 8.36878e-09
18 3.93067 1.26937 1.47174e-09 -3.24834e-06 6.75507e-07 1.04432e-08
95 4.84116 2.09466 2.78682e-09 -3.64519e-06 -4.14621e-08 -3.66463e-09
44 -5.03494 2.16996 2.82677e-09 3.38602e-06 -6.99703e-08 -8.16221e-09
37 -2.38041 2.77223 6.71502e-09 1.90559e-06 8.84307e-07 2.00241e-09
89 -3.35062 3.16107 -4.72745e-10 3.17285e-06 -6.06384e-07 1.94875e-09
30 -0.370587 3.07721 5.30897e-11 -2.6213e-06 6.69051e-07 -1.75757e-11
22 0.88566 2.58942 -1.75062e-09 -4.37375e-07 -1.53792e-06 -1.898e-09
65 2.1274 2.82945 -1.607e-09 -5.37727e-07 -2.91662e-07 6.11501e-09
90 3.08244 3.03874 5.1596e-09 4.20477e-06 -1.55557e-08 -3.42632e-09
71 4.02332 2.59403 -4.00023e-09 2.39936e-06 1.43978e-06 2.67911e-09
12 5.07398 3.29132 -7.29773e-10 -1.44682e-08 -1.39661e-06 -6.08535e-09
2 -4.48845 3.34734 2.80118e-09 4.51675e-07 5.08105e-07 6.50857e-09
80 -3.44984 3.9194 -8.08763e-09 -4.32461e-06 -5.12343e-07 -1.07179e-08
55 -2.58216 3.95213 3.89586e-09 1.27254e-06 2.35867e-07 -9.09258e-09
34 -1.41857 3.61918 4.73328e-09 1.26072e-06 -2.57631e-06 2.92141e-09
58 -0.511383 4.27566 1.63401e-10 1.99708e-06 1.10206e-06 3.98286e-10
81 0.342828 3.76634 2.49803e-09 -3.65924e-06 -2.65173e-07 -2.81024e-09
42 1.4184 3.83504 1.48831e-09 -6.43651e-08 1.71152e-07 -1.65748e-09
27 2.57697 3.9162 1.691e-09 4.53727e-08 9.00335e-07 8.85739e-09
43 3.82364 3.69607 -5.07198e-09 7.50471e-07 2.37705e-07 3.14775e-09
20 -5.24255 4.64996 -1.93566e-09 -3.30611e-07 9.94176e-07 -6.8379e-09
57 -4.07428 5.34268 3.93743e-09 -2.57179e-06 -7.68055e-07 -2.42647e-09
66 -4.07059 4.4405 3.67188e-09 2.90313e-07 -1.00498e-06 -5.15353e-09
93 -3.12854 4.78587 -6.65319e-10 -1.16605e-07 3.72602e-07 -8.53309e-09
24 -1.86456 4.89667 1.28042e-09 9.0185e-07 -6.55501e-07 -8.7688e-09
16 -0.727864 5.47015 3.13182e-09 3.82896e-07 1.88194e-06 4.10913e-09
14 0.5773 4.88954 -5.93298e-10 2.14123e-06 -1.05292e-06 1.84027e-09
15 1.97785 5.08848 1.2192e-09 -1.78428e-06 -1.04876e-06 -9.0782e-09
1 3.48296 4.96906 -4.28336e-09 5.94642e-07 7.46024e-07 6.12937e-09
75 4.57797 4.46285 -3.01122e-09 -1.52461e-06 -1.09811e-06 8.78123e-09
ITEM: TIMESTEP
1824
ITEM: NUMBER OF ATOMS
100
ITEM: BOX BOUNDS xy xz yz pp pp pp
-5.4766887701471498e+00 5.4766887701471498e+00 0.0000000000000000e+00
-5.4776536117040493e+00 5.4776536117040493e+00 0.0000000000000000e+00
-1.0000000000000001e-01 1.0000000000000001e-01 0.0000000000000000e+00
ITEM: ATOMS id x y z vx vy vz
62 -5.00141 -5.06763 -1.01264e-09 3.07074e-06 -2.43474e-06 1.04805e-08
29 -3.89759 -4.50034 -1.64455e-09 2.78612e-06 2.56947e-06 1.6633e-09
48 -2.95181 -5.19358 4.31874e-09 3.77425e-06 -5.02462e-06 4.27314e-09
8 -1.80294 -4.53956 5.28869e-09 -1.28202e-06 2.50008e-07 1.19579e-09
6 0.34178 -4.60469 2.61361e-09 -3.55396e-06 -2.80179e-06 1.03566e-08
91 1.25105 -5.0756 1.07048e-09 -2.69149e-06 -4.55585e-06 -8.00359e-09
68 2.0736 -4.52865 -3.62669e-09 7.94802e-07 -3.95837e-06 4.03534e-09
79 2.83705 -5.09331 -4.25437e-10 -9.73792e-06 1.30831e-06 9.96386e-09
84 3.71786 -4.8667 7.10989e-09 -1.97529e-06 4.54093e-06 -7.98879e-09
45 4.74199 -5.29145 4.42652e-10 4.91149e-07 -4.55871e-06 -5.08341e-09
82 5.21531 -4.39079 -1.0194e-08 6.65747e-06 5.30347e-07 -3.72016e-09
74 -4.85346 -4.00467 5.83974e-09 7.12405e-06 -2.33552e-06 -2.5157e-09
98 -4.00958 -3.44806 1.9433e-10 -1.01348e-05 1.56538e-06 -6.23233e-09
10 -2.8591 -3.56114 -4.41667e-09 -1.89606e-07 -2.27165e-06 3.01986e-09
25 -1.4997 -3.15863 5.53324e-09 -4.87025e-07 2.63981e-06 -7.45513e-09
69 -0.689953 -4.14114 -9.9665e-10 -3.0549e-07 6.62238e-06 -9.3712e-09
38 -0.0514181 -3.29319 4.4097e-09 -5.58772e-07 -2.19444e-06 -8.86339e-10
67 1.23497 -3.93803 4.48133e-10 -1.80081e-07 5.39607e-06 9.96681e-10
54 3.05447 -4.08349 -1.20814e-09 -2.50997e-06 1.41899e-06 1.21448e-09
9 4.23796 -3.94731 -2.17569e-09 -2.05151e-06 1.60634e-06 2.7076e-09
86 5.26596 -3.56311 6.79957e-09 2.36176e-06 2.64009e-06 9.47367e-09
31 -4.91889 -2.85102 6.36696e-09 9.09923e-06 -9.3056e-07 -4.18381e-09
49 -3.69897 -2.49886 4.01688e-09 -7.08184e-06 1.91581e-06 -3.12504e-09
56 -2.5693 -2.42144 4.75853e-09 7.20452e-06 -4.644e-07 8.28994e-09
96 -0.627592 -2.40025 -1.66902e-09 -6.52362e-06 -1.4603e-08 1.03626e-08
76 0.973367 -2.98936 -3.75555e-09 1.83119e-07 6.1786e-06 -4.09845e-09
21 2.20104 -3.20019 2.68365e-09 1.37699e-07 -3.59548e-06 5.08475e-10
52 3.50275 -2.96315 1.07207e-10 5.24963e-07 3.13643e-07 7.47756e-09
32 4.71922 -2.72531 8.96548e-09 2.0137e-06 3.47597e-06 2.6725e-09
88 -4.45224 -1.91481 -1.92583e-09 1.22353e-06 -2.90318e-06 -9.99869e-09
50 5.45092 -1.66742 -1.76897e-09 -8.36775e-06 9.21674e-07 -6.37617e-09
97 -3.61089 -1.53734 -4.69558e-09 7.18543e-06 2.31612e-06 -1.17747e-09
47 -2.59817 -1.2895 -7.51898e-11 -6.92334e-07 -1.30511e-06 -9.01357e-09
61 -1.6031 -1.87282 4.79503e-09 -1.51585e-06 -6.84154e-06 2.63443e-09
40 -0.542192 -1.4087 -3.21391e-09 -1.82535e-06 -4.74901e-07 1.02197e-08
63 0.334066 -2.20304 3.61398e-09 5.53461e-06 -7.29234e-07 -3.56853e-09
59 0.527809 -1.05842 -4.77929e-11 -1.42313e-06 1.77917e-06 6.61978e-09
3 1.44886 -1.94098 -1.08364e-08 -9.29815e-06 2.71279e-06 -2.09685e-09
35 2.81585 -2.01986 -6.48365e-10 7.32974e-07 -9.97012e-07 7.76952e-09
23 4.02633 -1.72807 1.58732e-09 8.92146e-06 3.3594e-06 -1.93228e-09
51 -4.43756 -1.01055 -2.27838e-09 -6.57026e-06 -1.27431e-06 -4.63876e-09
26 -5.33276 -0.368236 6.55629e-09 5.50349e-07 5.81205e-07 5.86521e-09
94 -3.47795 -0.647235 -1.92947e-09 4.63297e-07 5.27709e-06 5.99594e-09
13 -1.52778 -0.591734 7.79239e-09 -8.24749e-06 -2.47781e-06 -3.84306e-09
36 -0.312114 -0.165228 -4.10118e-09 -5.08678e-07 -1.36766e-07 -4.98081e-09
92 1.48702 -0.818092 -3.5376e-09 -7.69475e-07 5.06492e-06 -2.32185e-10
78 2.26893 -1.11117 3.89249e-10 -1.85429e-06 -5.79625e-06 7.63961e-09
85 3.0675 -0.913189 1.34746e-08 2.95705e-07 -1.04076e-06 8.35002e-09
53 2.20024 -0.0341531 -1.20045e-08 -8.57504e-06 -1.26196e-06 -8.9107e-09
83 3.8622 -0.673395 -3.41205e-09 1.95333e-06 5.5284e-06 -1.0568e-08
99 4.72997 -0.894638 -1.73935e-09 3.34364e-06 -6.1015e-06 1.09304e-08
19 -4.2265 0.175655 -9.09463e-09 -9.46853e-07 2.25445e-06 1.09413e-08
87 -3.5164 1.04153 3.86924e-09 3.85175e-06 -5.0639e-06 1.51396e-09
4 -2.6747 0.199135 5.74024e-09 3.31933e-06 -1.22095e-06 9.2659e-09
7 -1.26864 0.88066 -1.21792e-10 6.16104e-06 1.72272e-06 2.36515e-09
64 -0.0776115 0.934118 8.12222e-09 -6.32965e-06 -2.0372e-06 -1.57838e-11
5 0.985491 0.0981638 -2.15525e-10 8.64567e-06 3.27547e-06 -4.10979e-09
100 1.8126 0.871134 6.31846e-09 -5.32278e-07 -3.39723e-06 -7.02823e-09
60 2.68256 0.915727 1.40872e-10 7.81021e-06 -2.46913e-06 -4.13697e-09
70 3.31529 0.0750817 3.21126e-09 -1.51167e-07 4.50603e-07 -1.05963e-08
17 5.42903 1.00791 8.32753e-09 -2.3857e-06 -2.70363e-06 8.23493e-09
41 4.48865 0.122633 1.79143e-09 1.00151e-05 -2.84412e-07 5.16383e-09
77 -4.31342 1.27718 4.82412e-09 -9.76152e-08 3.42153e-06 -5.08824e-09
11 -3.64441 2.16243 9.89682e-09 -4.6695e-06 -2.6723e-06 1.02924e-08
46 -2.53151 1.54859 2.88634e-10 8.1818e-06 2.21774e-06 -1.04138e-08
39 -1.36362 2.23008 -1.93699e-09 -6.79863e-06 1.98796e-07 -2.01254e-09
28 -0.285438 1.89685 1.79699e-09 5.64319e-06 6.39836e-07 -5.86874e-09
72 0.886851 1.40442 3.15846e-09 -1.99929e-06 6.15508e-06 1.05994e-09
73 1.87631 1.77525 -5.68403e-09 -8.11715e-06 -1.86486e-06 2.41789e-09
33 2.99994 2.03392 8.08881e-10 1.70056e-06 5.98253e-07 -9.66606e-09
18 3.93026 1.26937 -5.27758e-09 -7.79061e-06 1.98753e-06 -5.75082e-09
95 4.84066 2.09465 2.40697e-09 -7.86343e-06 -1.03407e-06 -3.46764e-09
44 -5.03444 2.16996 2.49796e-09 6.32765e-06 -1.65506e-06 -1.02512e-08
37 -2.38016 2.77224 1.15022e-08 5.22831e-06 2.31929e-06 -7.03113e-09
89 -3.35025 3.16106 -3.13656e-09 8.99846e-06 -1.11614e-06 3.28123e-09
30 -0.370599 3.07721 -2.7477e-09 -7.63422e-06 1.67955e-06 -1.46027e-09
22 0.88556 2.58939 -5.55505e-09 -3.81997e-06 -3.68202e-06 -1.02329e-08
65 2.1272 2.82943 -1.81615e-10 1.19652e-06 -1.95003e-06 -9.22416e-09
90 3.08223 3.03874 7.6735e-10 9.54379e-06 9.93403e-07 -6.85341e-09
71 4.023 2.59405 -3.05285e-09 7.20005e-06 2.45165e-06 6.79829e-09
12 5.07351 3.29129 -3.08979e-09 -4.80725e-07 -3.32551e-06 1.01848e-08
2 -4.48803 3.34735 -1.87886e-09 2.42046e-06 2.42734e-06 1.80176e-09
80 -3.44959 3.91939 -7.03831e-09 -8.36199e-06 -8.96809e-07 9.21819e-09
55 -2.58192 3.95213 2.14114e-09 -7.43552e-07 2.09794e-06 7.04582e-09
34 -1.41841 3.61913 9.03903e-09 5.28934e-06 -4.70129e-06 -5.31449e-09
58 -0.511302 4.27567 -1.12426e-09 5.45743e-06 3.78946e-06 3.97535e-09
81 0.342729 3.76633 -3.52871e-09 -1.12198e-05 -8.13114e-07 -4.93182e-10
42 1.41826 3.83503 -2.2079e-09 -3.41693e-06 -1.32776e-06 -1.00978e-08
27 2.57675 3.91621 7.37114e-10 1.42002e-06 2.45246e-06 4.19956e-09
43 3.82331 3.69606 -8.18901e-09 1.07082e-06 1.04404e-06 6.08605e-09
20 -5.24208 4.64998 -9.57596e-09 -9.87353e-07 4.10462e-06 -4.33998e-09
57 -4.07395 5.34266 1.01546e-09 -7.13124e-06 -1.03992e-06 -8.7211e-10
66 -4.07022 4.44047 4.56348e-09 -3.36322e-07 -3.65839e-06 1.09101e-08
93 -3.12825 4.78587 2.57938e-10 -3.00884e-07 4.10741e-07 -7.1832e-09
24 -1.86437 4.89665 3.25404e-09 3.21881e-06 -1.72071e-06 8.55807e-09
16 -0.727791 5.47018 1.24261e-09 1.453e-06 5.89411e-06 6.28665e-09
14 0.577287 4.88951 -2.65189e-10 6.50132e-06 -3.047e-06 2.56621e-10
15 1.97764 5.08846 -2.16269e-10 -3.61103e-06 -2.73548e-06 3.11253e-10
1 3.48265 4.96907 -5.95785e-09 2.14819e-07 3.62555e-06 6.5284e-09
75 4.57753 4.46282 4.13404e-10 -2.48639e-06 -5.30636e-06 2.38599e-09
ITEM: TIMESTEP
2736
ITEM: NUMBER OF ATOMS
100
ITEM: BOX BOUNDS xy xz yz pp pp pp
-5.4761892124054343e+00 5.4761892124054343e+00 0.0000000000000000e+00
-5.4775675836144959e+00 5.4775675836144959e+00 0.0000000000000000e+00
-1.0000000000000001e-01 1.0000000000000001e-01 0.0000000000000000e+00
ITEM: ATOMS id x y z vx vy vz
62 -5.00092 -5.06759 -5.67755e-09 5.18866e-06 -4.81761e-06 -4.43761e-09
29 -3.89719 -4.50026 -3.28045e-09 5.42627e-06 1.43196e-06 4.21442e-09
48 -2.95152 -5.19357 -2.46724e-09 2.12268e-06 -1.00418e-05 5.24285e-09
8 -1.80278 -4.53948 6.42516e-09 -4.84374e-07 2.04465e-06 8.93211e-09
6 0.341714 -4.60464 -1.57369e-09 -4.05607e-06 -2.21076e-06 -5.44904e-09
91 1.2509 -5.07557 -4.05123e-09 -5.16367e-06 -5.91759e-06 -1.0643e-08
68 2.07341 -4.52862 -4.36439e-09 -1.51696e-06 -6.17876e-06 1.08863e-08
79 2.8367 -5.09321 -1.05779e-09 -1.20027e-05 2.93421e-06 -1.10156e-09
84 3.71749 -4.86657 1.14095e-08 -4.97151e-06 7.29598e-06 2.19476e-09
45 4.74156 -5.29141 -4.33145e-09 -3.21123e-07 -3.80862e-06 3.46666e-09
82 5.2149 -4.39072 -1.42504e-08 7.34814e-06 -1.04161e-06 1.08329e-08
74 -4.85293 -4.00463 6.64342e-09 1.10656e-05 -2.67333e-06 -3.4912e-09
98 -4.00932 -3.44799 -2.32146e-09 -1.3207e-05 1.94934e-06 -6.37201e-09
10 -2.85886 -3.5611 -5.52695e-09 -4.87662e-06 -3.09484e-06 1.00057e-09
25 -1.49957 -3.15854 8.26134e-09 -1.09361e-06 5.17086e-06 -5.47405e-09
69 -0.689897 -4.14099 -5.93106e-09 -1.16257e-06 1.27824e-05 8.29825e-09
38 -0.0514177 -3.29316 8.34971e-10 -4.83419e-07 -2.76901e-06 -9.15669e-10
67 1.23486 -3.93792 -8.04914e-10 -6.82988e-07 5.71056e-06 -2.80552e-09
54 3.05416 -4.0834 -1.29683e-09 -3.2918e-06 3.79517e-06 -9.1857e-09
9 4.23757 -3.94724 -1.93062e-09 1.51948e-06 1.91379e-06 4.81719e-09
86 5.26552 -3.56302 8.14106e-09 6.53444e-06 2.97523e-06 8.37397e-09
31 -4.91834 -2.85098 1.00365e-08 1.36109e-05 8.64096e-07 -5.97151e-09
49 -3.69869 -2.4988 5.6642e-09 -5.50277e-06 3.34305e-06 2.55434e-09
56 -2.569 -2.42142 2.60211e-09 6.23184e-06 -2.91063e-06 2.82168e-09
96 -0.62759 -2.40022 9.42354e-11 -5.75374e-06 -1.24792e-06 5.46831e-09
76 0.973275 -2.98924 -7.16156e-09 -4.5713e-07 1.01377e-05 5.6099e-09
21 2.20084 -3.20018 7.02926e-09 -9.13337e-07 -4.4719e-06 -1.09281e-08
52 3.50245 -2.9631 -3.84885e-09 2.20266e-06 2.05048e-06 9.76707e-09
32 4.71883 -2.72522 -1.37825e-09 6.03762e-06 4.87332e-06 3.73282e-10
88 -4.45182 -1.91481 -1.05157e-09 1.57135e-06 -2.95524e-06 4.46055e-09
50 5.45034 -1.6674 1.51973e-09 -9.0013e-06 -2.19978e-06 -5.41831e-09
97 -3.61049 -1.53729 -1.22794e-10 8.56857e-06 3.34044e-06 -8.86514e-09
47 -2.59794 -1.28949 2.58233e-09 -2.04821e-06 -1.15449e-07 -4.58909e-09
61 -1.60297 -1.87287 -1.66737e-09 -3.06445e-06 -1.13206e-05 -7.85641e-09
40 -0.542171 -1.40868 -1.90079e-09 -4.45456e-06 -4.78369e-07 -9.23584e-09
63 0.334079 -2.20302 8.22499e-09 4.13484e-06 -2.08358e-06 1.64026e-09
59 0.527746 -1.05838 2.38432e-09 -1.71575e-06 4.06722e-06 -9.02174e-09
3 1.44863 -1.94092 -1.3863e-08 -1.19632e-05 2.43644e-06 8.01286e-09
35 2.8156 -2.01984 -4.16919e-09 5.48822e-07 -2.63707e-06 3.95095e-09
23 4.02606 -1.728 -1.38586e-09 1.1641e-05 5.02449e-06 -7.51809e-09
51 -4.43722 -1.01054 -1.06338e-09 -7.57257e-06 -3.63249e-07 -7.58357e-11
26 -5.33227 -0.368223 -1.13339e-09 -2.49394e-07 8.3812e-07 -8.61565e-09
94 -3.47764 -0.647167 -5.88896e-09 -2.44513e-06 6.76612e-06 5.60558e-09
13 -1.52773 -0.591756 1.15709e-08 -1.18879e-05 -3.84367e-06 -3.88725e-09
36 -0.312097 -0.16524 -1.44198e-09 -1.50969e-06 -3.10445e-06 -6.7192e-09
92 1.48689 -0.818017 3.46104e-09 2.47268e-07 8.50584e-06 4.73138e-09
78 2.2687 -1.11122 1.67672e-09 -2.72644e-06 -7.06404e-06 -4.21872e-09
85 3.06722 -0.913183 1.20497e-08 1.1256e-06 -1.03381e-06 -1.89297e-09
53 2.19995 -0.0341665 -1.38532e-08 -1.02898e-05 -2.30994e-06 7.12986e-09
83 3.86187 -0.673318 -2.68036e-09 2.85144e-06 8.09962e-06 -6.42243e-09
99 4.72958 -0.894691 -1.90532e-09 3.91828e-06 -8.25138e-06 -3.53019e-11
19 -4.22611 0.175676 -4.65834e-09 6.0493e-07 3.16184e-06 3.24133e-09
87 -3.51604 1.04146 5.55051e-09 5.28743e-06 -5.0394e-06 7.7905e-09
4 -2.67442 0.19912 5.503e-09 5.9704e-06 -1.56639e-06 7.20583e-09
7 -1.26845 0.880655 -2.74295e-11 1.05622e-05 -2.4101e-07 -6.60646e-09
64 -0.0776654 0.93409 8.08398e-09 -7.08273e-06 -6.99387e-07 -9.31297e-09
5 0.985494 0.0981942 -3.0227e-09 1.10476e-05 3.93555e-06 8.28634e-09
100 1.81244 0.871081 5.12769e-09 3.8879e-07 -4.73414e-06 3.45153e-09
60 2.68238 0.915672 -6.455e-10 7.5912e-06 -6.02433e-06 7.74642e-09
70 3.31499 0.0750873 -5.85626e-10 1.0202e-07 1.29058e-06 -1.77399e-09
17 5.4285 1.00787 1.54671e-08 -4.25342e-06 -3.68949e-06 1.44147e-09
41 4.48834 0.122632 4.62694e-10 1.20314e-05 5.61388e-07 -4.812e-09
77 -4.31301 1.2772 4.14299e-09 2.53673e-06 5.05883e-06 -7.42229e-10
11 -3.64412 2.16237 1.13683e-08 -4.30618e-06 -1.97205e-06 3.13317e-09
46 -2.53119 1.54858 2.87595e-11 1.09284e-05 1.21293e-06 -1.59931e-09
39 -1.36356 2.23003 -3.31616e-09 -6.7307e-06 -2.78783e-06 2.89621e-09
28 -0.285365 1.89684 -1.09012e-09 4.23314e-06 3.0331e-06 -7.05914e-09
72 0.886746 1.40446 4.59045e-10 -2.79124e-06 6.9558e-06 -4.12913e-10
73 1.87606 1.77521 -1.71389e-08 -9.52116e-06 -1.95929e-06 1.20841e-09
33 2.99968 2.03389 -8.19043e-10 1.75146e-06 4.89551e-08 1.73659e-10
18 3.92981 1.26937 -9.95725e-09 -1.12932e-05 4.23202e-07 -7.47041e-09
95 4.84015 2.0946 5.13609e-10 -7.44674e-06 -2.10001e-06 3.04961e-09
44 -5.03393 2.16989 -2.43184e-09 3.86207e-06 -3.7313e-06 7.91302e-09
37 -2.37988 2.77222 1.1843e-08 7.39635e-06 3.23076e-06 -1.62936e-09
89 -3.34985 3.16099 -7.9217e-09 1.21593e-05 -1.78065e-06 2.21783e-09
30 -0.370655 3.07718 -1.08682e-09 -1.20546e-05 2.93212e-06 -5.44491e-10
22 0.885429 2.58931 -3.60175e-09 -6.69005e-06 -5.44236e-06 -7.76251e-09
65 2.12703 2.82937 5.82016e-09 3.67873e-06 -2.16802e-06 -1.03624e-08
90 3.08204 3.03871 2.42151e-10 1.08444e-05 3.11074e-06 4.78625e-10
71 4.02272 2.59403 -4.10425e-09 1.07484e-05 2.91273e-06 -8.65128e-09
12 5.07306 3.2912 6.9889e-10 1.04689e-06 -4.48245e-06 -1.66707e-09
2 -4.48758 3.34732 -8.09203e-10 5.60946e-06 3.00392e-06 -1.0906e-08
80 -3.44936 3.91932 -1.37919e-08 -8.97544e-06 -1.50371e-06 1.55416e-09
55 -2.5817 3.9521 6.51469e-10 -3.03808e-06 3.5843e-06 -1.07793e-08
34 -1.41822 3.61904 1.40021e-08 6.79922e-06 -3.63401e-06 9.10121e-09
58 -0.511197 4.27565 -7.03686e-09 6.97389e-06 6.99521e-06 -4.68926e-09
81 0.342571 3.76626 -4.97472e-09 -1.60991e-05 -2.4204e-06 1.02109e-08
42 1.41808 3.83494 -4.10953e-09 -7.70259e-06 -4.57689e-06 1.07347e-08
27 2.57652 3.91618 -4.3002e-09 -3.5562e-07 3.06205e-06 3.32828e-09
43 3.82297 3.69603 -1.02167e-08 2.02045e-06 4.15878e-06 -9.7996e-09
20 -5.24162 4.64996 -1.03948e-09 -2.37237e-06 6.39671e-06 1.02344e-08
57 -4.07365 5.34256 -1.68289e-09 -9.11696e-06 -1.56713e-06 -3.51796e-09
66 -4.06986 4.44035 4.21738e-10 -1.68662e-06 -6.28338e-06 6.31794e-09
93 -3.12797 4.7858 3.86607e-09 -6.48701e-07 -5.39294e-07 7.9489e-09
24 -1.86416 4.89655 5.85461e-10 5.1278e-06 -3.32947e-06 -5.93078e-09
16 -0.727697 5.47017 5.25231e-09 4.79934e-06 9.42314e-06 -1.82922e-09
14 0.577305 4.88941 -8.56349e-09 8.81322e-06 -4.10816e-06 7.39793e-09
15 1.97743 5.08835 3.66389e-09 -4.27671e-06 -4.85408e-06 3.34466e-09
1 3.48232 4.96904 -9.23205e-09 -1.04846e-06 5.00619e-06 -4.11237e-09
75 4.57709 4.46268 -4.96289e-10 -3.64332e-06 -9.07646e-06 5.19423e-09
ITEM: TIMESTEP
3648
ITEM: NUMBER OF ATOMS
100
ITEM: BOX BOUNDS xy xz yz pp pp pp
-5.4756896546637197e+00 5.4756896546637197e+00 0.0000000000000000e+00
-5.4774309168766377e+00 5.4774309168766377e+00 0.0000000000000000e+00
-1.0000000000000001e-01 1.0000000000000001e-01 0.0000000000000000e+00
ITEM: ATOMS id x y z vx vy vz
62 -5.00041 -5.06751 -4.64822e-09 6.04087e-06 -6.47166e-06 -1.02358e-08
29 -3.89678 -4.50013 1.38849e-09 6.35652e-06 1.09362e-06 -1.03029e-08
48 -2.95123 -5.19355 -4.41107e-09 2.64294e-06 -1.39679e-05 4.74424e-09
8 -1.80262 -4.53935 1.02051e-08 -1.66689e-06 2.16994e-06 8.42348e-09
6 0.341637 -4.60454 -3.70149e-09 -6.45787e-06 -2.90401e-07 1.20454e-09
91 1.25073 -5.0755 -6.35278e-09 -6.96887e-06 -7.89066e-06 4.01099e-09
68 2.0732 -4.52857 -1.04951e-08 -2.72729e-06 -6.70373e-06 -1.61474e-10
79 2.83632 -5.09305 -1.09227e-09 -1.32655e-05 4.55644e-06 -1.76987e-09
84 3.7171 -4.86637 1.45324e-08 -5.89916e-06 9.40656e-06 -2.0357e-09
45 4.74112 -5.29131 -9.94132e-09 -2.35501e-06 -4.07852e-06 9.26161e-09
82 5.2145 -4.39062 -1.22204e-08 9.2044e-06 -1.40096e-06 -8.48492e-10
74 -4.85238 -4.00456 5.21909e-09 1.40084e-05 -3.33464e-06 -7.86671e-09
98 -4.00909 -3.44788 2.0597e-10 -1.50706e-05 2.49144e-06 9.2144e-09
10 -2.85866 -3.56105 -4.37904e-09 -7.90731e-06 -4.57722e-06 7.70484e-09
25 -1.49946 -3.1584 7.06788e-09 -3.85934e-06 7.44389e-06 8.32421e-09
69 -0.689844 -4.14075 -4.67729e-09 -9.08737e-07 1.76205e-05 -5.92954e-09
38 -0.0514154 -3.29312 -1.15117e-09 2.01861e-07 -5.42166e-06 -1.44335e-09
67 1.23473 -3.93776 4.47621e-09 -1.73967e-06 7.09837e-06 -7.04895e-09
54 3.05385 -4.08325 1.56618e-10 -3.89787e-06 6.62361e-06 -3.08594e-09
9 4.2372 -3.94712 2.80709e-09 2.16243e-06 2.87702e-06 1.21881e-09
86 5.26512 -3.56291 6.13694e-09 1.04227e-05 2.38512e-06 3.42864e-09
31 -4.91774 -2.85089 8.26078e-09 1.81553e-05 1.95338e-06 -1.17984e-09
49 -3.6984 -2.4987 9.32111e-09 -4.75366e-06 2.46012e-06 -4.21939e-09
56 -2.56871 -2.42139 2.86671e-09 5.56041e-06 -3.43518e-06 -3.07309e-09
96 -0.627582 -2.40018 9.94919e-10 -5.21582e-06 -2.85425e-06 -9.96217e-10
76 0.973177 -2.98906 -4.74498e-09 -1.31807e-06 1.16908e-05 -8.72187e-09
21 2.20063 -3.20013 5.86486e-09 -1.25383e-06 -3.6909e-06 7.23147e-09
52 3.50215 -2.96299 -3.77659e-09 3.51728e-06 3.87406e-06 6.7468e-10
32 4.71847 -2.72511 -1.68298e-09 9.64091e-06 6.35367e-06 2.73341e-09
88 -4.4514 -1.91479 8.47247e-09 1.83366e-06 -2.47303e-06 -1.00539e-08
50 5.44977 -1.66739 -4.57007e-09 -7.86214e-06 -3.61885e-06 -1.10182e-08
97 -3.61008 -1.53722 -3.9421e-09 7.1818e-06 3.99983e-06 -9.76751e-09
47 -2.59772 -1.28946 4.74083e-09 -2.5082e-06 -2.83157e-07 9.32219e-09
61 -1.60287 -1.87294 -7.83832e-09 -5.18488e-06 -1.37319e-05 5.41239e-09
40 -0.542167 -1.40864 -2.61017e-09 -5.68306e-06 8.70375e-07 4.69029e-09
63 0.334083 -2.20298 8.16875e-09 3.80486e-06 -4.01964e-07 3.18338e-11
59 0.527683 -1.05831 -3.58987e-10 -2.16591e-06 4.2546e-06 -4.70292e-10
3 1.44839 -1.94085 -1.50059e-08 -1.18138e-05 3.72678e-06 4.96546e-09
35 2.81535 -2.01983 -7.86103e-09 1.52718e-06 -3.76382e-06 2.75266e-09
23 4.0258 -1.72791 -1.69193e-09 1.1309e-05 6.12199e-06 -7.81275e-09
51 -4.43689 -1.01052 -2.30318e-09 -8.92448e-06 2.39901e-07 7.62675e-09
26 -5.33179 -0.368207 3.45322e-09 4.25267e-08 2.97112e-07 -4.73735e-09
94 -3.47735 -0.647077 -1.05828e-08 -3.84502e-06 9.67984e-06 7.29856e-09
13 -1.5277 -0.591784 1.21828e-08 -1.29226e-05 -5.86151e-06 7.16287e-09
36 -0.31208 -0.165275 6.08519e-10 -1.05374e-06 -5.19263e-06 -8.81745e-09
92 1.48675 -0.817912 -6.13638e-10 3.8747e-07 9.69839e-06 4.22206e-10
78 2.26847 -1.11125 -3.87218e-10 -1.69786e-06 -6.63273e-06 -1.11067e-08
85 3.06696 -0.913169 1.91145e-08 1.22198e-06 -1.20946e-06 6.61722e-09
53 2.19965 -0.0341963 -9.47793e-09 -1.00014e-05 -4.05886e-06 1.87078e-09
83 3.86156 -0.673226 -4.83179e-09 3.94205e-06 8.33042e-06 -1.07079e-08
99 4.72918 -0.894746 -6.27963e-10 3.2692e-06 -8.46917e-06 5.93641e-09
19 -4.22572 0.175701 -3.41876e-09 1.43323e-06 3.83607e-06 1.687e-10
87 -3.51566 1.04139 9.70784e-09 6.56185e-06 -4.56432e-06 4.33724e-09
4 -2.67411 0.199095 3.44511e-09 7.94091e-06 -3.26311e-06 -1.43659e-09
7 -1.26822 0.880619 9.60329e-10 1.46204e-05 -3.25925e-06 -6.37888e-09
64 -0.0777241 0.93406 4.08771e-09 -7.42124e-06 -6.4599e-07 4.65791e-09
5 0.985505 0.0982315 -3.11119e-09 1.06936e-05 4.68776e-06 4.47401e-09
100 1.81227 0.871017 4.33483e-09 -1.10849e-06 -4.8849e-06 -1.099e-08
60 2.68221 0.915589 -8.15102e-09 7.80953e-06 -6.86461e-06 -1.32924e-09
70 3.31469 0.0750988 6.50787e-09 2.86611e-07 2.14157e-06 7.58521e-09
17 5.42797 1.00779 1.7596e-08 -3.89282e-06 -6.52725e-06 2.58622e-09
41 4.48804 0.122636 5.70997e-09 1.15767e-05 8.65006e-07 -1.10887e-09
77 -4.31259 1.27722 5.44176e-09 2.528e-06 6.09398e-06 -6.90599e-09
11 -3.64381 2.1623 1.37414e-08 -2.25803e-06 -1.2998e-06 -8.53116e-09
46 -2.53085 1.54855 2.44832e-09 1.31744e-05 -4.8139e-07 -5.47324e-09
39 -1.3635 2.22995 -3.38399e-09 -7.2035e-06 -3.06438e-06 -5.45688e-09
28 -0.285308 1.89682 5.41784e-09 2.79054e-06 2.92412e-06 -8.94561e-09
72 0.886642 1.40449 2.03213e-09 -2.25991e-06 7.35337e-06 1.11012e-08
73 1.8758 1.77515 -1.61386e-08 -8.90233e-06 -1.92471e-06 5.20368e-09
33 2.99942 2.03384 -6.24941e-09 1.79586e-06 2.32978e-07 6.92149e-09
18 3.92934 1.26933 -1.26178e-08 -1.27743e-05 -1.70424e-06 8.4579e-09
95 4.83964 2.09453 7.32859e-09 -8.0095e-06 -3.62008e-06 -1.11511e-09
44 -5.03344 2.16981 -3.2297e-09 2.86045e-06 -3.35367e-06 1.08999e-08
37 -2.37959 2.77218 1.03995e-08 8.08852e-06 3.60764e-06 -1.10949e-08
89 -3.34943 3.1609 -2.50112e-09 1.30906e-05 -1.88722e-06 8.10989e-09
30 -0.370742 3.07714 -6.76968e-09 -1.44074e-05 4.17686e-06 2.80956e-09
22 0.885281 2.5892 -3.16683e-12 -7.85117e-06 -5.71838e-06 -3.48307e-09
65 2.12688 2.82928 1.0364e-08 4.3032e-06 -1.72269e-06 6.49626e-09
90 3.08186 3.03866 -1.44284e-09 1.14531e-05 3.9024e-06 7.28952e-09
71 4.02245 2.59399 4.65925e-09 1.12888e-05 2.38461e-06 6.93951e-09
12 5.07261 3.29108 -6.29801e-09 3.0398e-06 -3.31435e-06 7.13457e-09
2 -4.48711 3.34726 -2.87723e-09 8.13114e-06 2.30588e-06 1.82977e-09
80 -3.44912 3.9192 -1.84501e-08 -8.75597e-06 -2.35352e-06 -8.89909e-09
55 -2.58148 3.95204 -3.38602e-09 -1.56504e-06 4.96136e-06 -3.55898e-09
34 -1.41803 3.61893 1.50352e-08 5.45389e-06 -8.85397e-07 9.91597e-09
58 -0.511077 4.27562 -9.13122e-09 8.82095e-06 9.05371e-06 -8.43064e-09
81 0.342379 3.76614 2.09807e-09 -1.87516e-05 -4.02721e-06 9.97691e-09
42 1.41786 3.83479 -5.22822e-09 -1.10571e-05 -7.49126e-06 1.07864e-08
27 2.57627 3.91611 -1.07079e-08 -3.46311e-06 3.0396e-06 -4.37409e-09
43 3.82265 3.69599 -2.07019e-08 3.63267e-06 5.82685e-06 8.25838e-09
20 -5.24116 4.64991 -5.38165e-09 -3.26531e-06 7.70239e-06 -7.09443e-09
57 -4.07337 5.34241 -9.57592e-10 -1.05155e-05 -3.63996e-06 6.47561e-09
66 -4.06951 4.44018 -3.56788e-09 -2.82291e-06 -6.85575e-06 -2.3632e-09
93 -3.12769 4.78567 6.98669e-09 -6.49612e-07 -5.50902e-07 -7.57979e-10
24 -1.86393 4.89639 -4.68366e-09 7.0715e-06 -3.80791e-06 7.35703e-09
16 -0.727575 5.47013 5.13609e-09 7.19491e-06 1.22342e-05 7.25452e-09
14 0.577339 4.88924 -1.23183e-08 1.02193e-05 -4.88252e-06 -7.85264e-09
15 1.9772 5.08817 6.90502e-09 -6.12617e-06 -7.34591e-06 9.01518e-09
1 3.48199 4.96895 -1.79165e-09 -1.40878e-06 4.41356e-06 -6.31511e-09
75 4.57663 4.46248 -1.24974e-09 -4.85537e-06 -1.00914e-05 -3.93186e-09
ITEM: TIMESTEP
4560
ITEM: NUMBER OF ATOMS
100
ITEM: BOX BOUNDS xy xz yz pp pp pp
-5.4751900969220051e+00 5.4751900969220051e+00 0.0000000000000000e+00
-5.4772610338029368e+00 5.4772610338029368e+00 0.0000000000000000e+00
-1.0000000000000001e-01 1.0000000000000001e-01 0.0000000000000000e+00
ITEM: ATOMS id x y z vx vy vz
62 -4.9999 -5.06742 -2.89141e-09 5.55153e-06 -7.71008e-06 -4.96264e-09
29 -3.89637 -4.49998 1.92215e-09 6.01316e-06 8.66566e-07 5.63821e-09
48 -2.95093 -5.19353 -3.34006e-09 2.29354e-06 -1.62469e-05 6.34587e-09
8 -1.80248 -4.53919 1.31606e-08 -2.3005e-06 2.44233e-06 1.00779e-08
6 0.341544 -4.60439 3.72465e-09 -6.63704e-06 1.16814e-06 -9.13537e-09
91 1.25054 -5.07542 -8.26216e-09 -9.08343e-06 -8.87867e-06 -6.86046e-09
68 2.07298 -4.52848 -1.35905e-08 -3.72091e-06 -5.28625e-06 -5.48832e-09