LAMMPS data file.

    100 atoms
    157 bonds
    342 angles
      0 dihedrals
      0 impropers
      1 atom types
    157 bond types
    342 angle types
      0 dihedral types
      0 improper types
  -5.477606   5.477606 xlo xhi
  -5.477606   5.477606 ylo yhi
  -0.100000   0.100000 zlo zhi
0.0 0.0 0.0 xy xz yz

Masses # ['atom_id', 'mass']

1 1000000.0

Atoms # ['atomID', 'moleculeID', 'atomType', 'charge', 'x', 'y', 'z']

     62      1      1   0.000000  -5.002272  -5.067581   0.000000
     29      1      1   0.000000  -3.898255  -4.500339   0.000000
     48      1      1   0.000000  -2.952346  -5.193503   0.000000
      8      1      1   0.000000  -1.803225  -4.539526   0.000000
      6      1      1   0.000000   0.341868  -4.604626   0.000000
     91      1      1   0.000000   1.251278  -5.075524   0.000000
     68      1      1   0.000000   2.073931  -4.528580   0.000000
     79      1      1   0.000000   2.837612  -5.093267   0.000000
     84      1      1   0.000000   3.718486  -4.866687   0.000000
     45      1      1   0.000000   4.742787  -5.291370   0.000000
     82      1      1   0.000000   5.216130  -4.390748   0.000000
     74      1      1   0.000000  -4.854327  -4.004616   0.000000
     98      1      1   0.000000  -4.010177  -3.448034   0.000000
     10      1      1   0.000000  -2.859591  -3.561090   0.000000
     25      1      1   0.000000  -1.499946  -3.158614   0.000000
     69      1      1   0.000000  -0.690067  -4.141150   0.000000
     38      1      1   0.000000  -0.051425  -3.293147   0.000000
     67      1      1   0.000000   1.235180  -3.938036   0.000000
     54      1      1   0.000000   3.054997  -4.083462   0.000000
      9      1      1   0.000000   4.238699  -3.947291   0.000000
     86      1      1   0.000000   5.266835  -3.563101   0.000000
     31      1      1   0.000000  -4.919779  -2.850984   0.000000
     49      1      1   0.000000  -3.699530  -2.498850   0.000000
     56      1      1   0.000000  -2.569787  -2.421426   0.000000
     96      1      1   0.000000  -0.627633  -2.400234   0.000000
     76      1      1   0.000000   0.973525  -2.989369   0.000000
     21      1      1   0.000000   2.201406  -3.200132   0.000000
     52      1      1   0.000000   3.503340  -2.963128   0.000000
     32      1      1   0.000000   4.720005  -2.725309   0.000000
     88      1      1   0.000000  -4.452998  -1.914771   0.000000
     50      1      1   0.000000   5.451901  -1.667421   0.000000
     97      1      1   0.000000  -3.611557  -1.537352   0.000000
     47      1      1   0.000000  -2.598599  -1.289484   0.000000
     61      1      1   0.000000  -1.603358  -1.872757   0.000000
     40      1      1   0.000000  -0.542269  -1.408682   0.000000
     63      1      1   0.000000   0.334061  -2.203026   0.000000
     59      1      1   0.000000   0.527908  -1.058423   0.000000
      3      1      1   0.000000   1.449171  -1.940979   0.000000
     35      1      1   0.000000   2.816319  -2.019829   0.000000
     23      1      1   0.000000   4.026938  -1.728080   0.000000
     51      1      1   0.000000  -4.438241  -1.010525   0.000000
     26      1      1   0.000000  -5.333660  -0.368232   0.000000
     94      1      1   0.000000  -3.478541  -0.647270   0.000000
     13      1      1   0.000000  -1.527976  -0.591714   0.000000
     36      1      1   0.000000  -0.312162  -0.165233   0.000000
     92      1      1   0.000000   1.487277  -0.818123   0.000000
     78      1      1   0.000000   2.269318  -1.111117   0.000000
     85      1      1   0.000000   3.068013  -0.913177   0.000000
     53      1      1   0.000000   2.200676  -0.034135   0.000000
     83      1      1   0.000000   3.862836  -0.673421   0.000000
     99      1      1   0.000000   4.730740  -0.894585   0.000000
     19      1      1   0.000000  -4.227194   0.175631   0.000000
     87      1      1   0.000000  -3.517023   1.041553   0.000000
      4      1      1   0.000000  -2.675177   0.199141   0.000000
      7      1      1   0.000000  -1.268897   0.880629   0.000000
     64      1      1   0.000000  -0.077571   0.934123   0.000000
      5      1      1   0.000000   0.985597   0.098135   0.000000
    100      1      1   0.000000   1.812920   0.871150   0.000000
     60      1      1   0.000000   2.682932   0.915727   0.000000
     70      1      1   0.000000   3.315845   0.075082   0.000000
     17      1      1   0.000000   5.429951   1.007921   0.000000
     41      1      1   0.000000   4.489324   0.122638   0.000000
     77      1      1   0.000000  -4.314131   1.277143   0.000000
     11      1      1   0.000000  -3.644983   2.162433   0.000000
     46      1      1   0.000000  -2.531987   1.548558   0.000000
     39      1      1   0.000000  -1.363790   2.230052   0.000000
     28      1      1   0.000000  -0.285537   1.896840   0.000000
     72      1      1   0.000000   0.887005   1.404367   0.000000
     73      1      1   0.000000   1.876693   1.775258   0.000000
     33      1      1   0.000000   3.000422   2.033900   0.000000
     18      1      1   0.000000   3.930977   1.269351   0.000000
     95      1      1   0.000000   4.841543   2.094637   0.000000
     44      1      1   0.000000  -5.035337   2.169940   0.000000
     37      1      1   0.000000  -2.380596   2.772196   0.000000
     89      1      1   0.000000  -3.350881   3.161037   0.000000
     30      1      1   0.000000  -0.370608   3.077173   0.000000
     22      1      1   0.000000   0.885727   2.589401   0.000000
     65      1      1   0.000000   2.127560   2.829419   0.000000
     90      1      1   0.000000   3.082666   3.038708   0.000000
     71      1      1   0.000000   4.023624   2.594001   0.000000
     12      1      1   0.000000   5.074369   3.291288   0.000000
      2      1      1   0.000000  -4.488794   3.347306   0.000000
     80      1      1   0.000000  -3.450095   3.919367   0.000000
     55      1      1   0.000000  -2.582358   3.952088   0.000000
     34      1      1   0.000000  -1.418677   3.619147   0.000000
     58      1      1   0.000000  -0.511429   4.275612   0.000000
     81      1      1   0.000000   0.342864   3.766301   0.000000
     42      1      1   0.000000   1.418511   3.834997   0.000000
     27      1      1   0.000000   2.577172   3.916161   0.000000
     43      1      1   0.000000   3.823934   3.696029   0.000000
     20      1      1   0.000000  -5.242948   4.649913   0.000000
     57      1      1   0.000000  -4.074580   5.342624   0.000000
     66      1      1   0.000000  -4.070903   4.440455   0.000000
     93      1      1   0.000000  -3.128776   4.785825   0.000000
     24      1      1   0.000000  -1.864702   4.896618   0.000000
     16      1      1   0.000000  -0.727920   5.470095   0.000000
     14      1      1   0.000000   0.577339   4.889494   0.000000
     15      1      1   0.000000   1.978007   5.088435   0.000000
      1      1      1   0.000000   3.483224   4.969008   0.000000
     75      1      1   0.000000   4.578324   4.462813   0.000000

Bond Coeffs # ['bondID', 'bondCoeff', 'd']

      1   1.024689   0.987879
      2   0.682592   1.210374
      3   0.788668   1.126038
      4   0.657871   1.232905
      5   0.723159   1.175934
      6   0.602377   1.288444
      7   1.450901   0.830197
      8   0.937240   1.032939
      9   0.914893   1.045478
     10   0.550570   1.347702
     11   0.868037   1.073324
     12   0.861608   1.077321
     13   0.500276   1.413823
     14   0.530745   1.372641
     15   0.572689   1.321420
     16   0.607255   1.283260
     17   0.875934   1.068475
     18   0.431915   1.521601
     19   0.657804   1.232967
     20   0.432648   1.520313
     21   0.993164   1.003436
     22   0.672865   1.219091
     23   0.472520   1.454755
     24   0.517438   1.390179
     25   0.764134   1.143971
     26   0.678583   1.213943
     27   0.593507   1.298037
     28   0.963320   1.018860
     29   1.709672   0.764793
     30   0.741244   1.161500
     31   0.796476   1.120504
     32   1.454394   0.829199
     33   1.009631   0.995219
     34   0.792231   1.123502
     35   0.791379   1.124107
     36   0.752138   1.153058
     37   0.680494   1.212238
     38   0.546464   1.352755
     39   0.797420   1.119841
     40   0.555711   1.341454
     41   0.582763   1.309947
     42   1.022355   0.989006
     43   0.851652   1.083600
     44   0.441397   1.505169
     45   0.515214   1.393177
     46   0.823619   1.101886
     47   0.409492   1.562706
     48   0.595311   1.296069
     49   0.785139   1.128565
     50   0.734941   1.166471
     51   1.045992   0.977768
     52   0.447444   1.494963
     53   1.030850   0.984923
     54   0.860780   1.077839
     55   0.625095   1.264815
     56   0.579745   1.313353
     57   0.779841   1.132393
     58   0.567125   1.327886
     59   0.866388   1.074345
     60   0.688939   1.204785
     61   0.456572   1.479945
     62   0.649091   1.241216
     63   0.727156   1.172698
     64   0.570274   1.324214
     65   0.892958   1.058241
     66   0.745559   1.158135
     67   0.742009   1.160902
     68   0.814763   1.107858
     69   0.748149   1.156128
     70   0.507489   1.403739
     71   1.122869   0.943703
     72   1.002554   0.998725
     73   0.578905   1.314306
     74   0.868405   1.073096
     75   0.804927   1.114607
     76   0.704377   1.191509
     77   0.574273   1.319595
     78   0.623879   1.266047
     79   0.966022   1.017435
     80   0.571035   1.323331
     81   0.687059   1.206432
     82   0.696843   1.197933
     83   0.543056   1.356993
     84   0.781433   1.131238
     85   0.497359   1.417964
     86   0.819078   1.104937
     87   0.953498   1.024095
     88   1.208784   0.909548
     89   0.644863   1.245278
     90   0.813307   1.108850
     91   0.797231   1.119974
     92   0.885497   1.062690
     93   0.983861   1.008168
     94   1.228619   0.902176
     95   0.858663   1.079167
     96   0.705435   1.190615
     97   0.757101   1.149273
     98   0.650690   1.239689
     99   0.582522   1.310219
    100   0.660259   1.230673
    101   0.654805   1.235788
    102   0.842647   1.089374
    103   1.032597   0.984090
    104   1.326194   0.868353
    105   1.170968   0.924118
    106   1.037618   0.981705
    107   0.748979   1.155487
    108   1.246618   0.895640
    109   0.747963   1.156272
    110   0.934060   1.034696
    111   0.788525   1.126140
    112   1.317683   0.871153
    113   1.234660   0.899966
    114   1.222675   0.904366
    115   0.572028   1.322182
    116   0.868220   1.073211
    117   0.646368   1.243827
    118   0.776380   1.134913
    119   0.614740   1.275423
    120   0.759565   1.147407
    121   0.686773   1.206683
    122   0.649637   1.240694
    123   1.072712   0.965514
    124   1.175824   0.922208
    125   0.616847   1.273243
    126   0.697909   1.197018
    127   0.855818   1.080959
    128   0.751477   1.153565
    129   1.447424   0.831193
    130   0.752071   1.153110
    131   0.464830   1.466739
    132   1.217318   0.906354
    133   0.975184   1.012644
    134   0.779957   1.132309
    135   0.830105   1.097573
    136   0.785702   1.128161
    137   0.875041   1.069020
    138   0.877781   1.067350
    139   0.922760   1.041012
    140   0.644284   1.245838
    141   0.490004   1.428565
    142   0.949688   1.026147
    143   1.433829   0.835125
    144   1.476899   0.822857
    145   0.438608   1.509948
    146   0.715398   1.182296
    147   0.740131   1.162373
    148   0.724997   1.174443
    149   0.858855   1.079046
    150   0.621057   1.268920
    151   0.533245   1.369419
    152   0.950349   1.025790
    153   0.415057   1.552195
    154   0.714069   1.183395
    155   0.628806   1.261077
    156   0.553194   1.344501
    157   0.881206   1.065274

Bonds # ['ID', 'type', 'atom1', 'atom2']

         1         1        91        68
         2         2        55        34
         3         3        40        59
         4         4        26        19
         5         5        10        56
         6         6        13        36
         7         7        85        83
         8         8        79        54
         9         9        99        41
        10        10        30        22
        11        11        82         9
        12        12        68        54
        13        13         8        25
        14        14        42        15
        15        15        31        32
        16        16        61        13
        17        17       100        72
        18        18        17        18
        19        19        46        37
        20        20         8        24
        21        21        66        93
        22        22        95        12
        23        23        25        38
        24        24        39        34
        25        25        84         1
        26        26        58        16
        27        27        44         2
        28        28        85        70
        29        29        89        80
        30        30        42        27
        31        31        53        70
        32        32        82        86
        33        33        96        40
        34        34         3        92
        35        35        36        64
        36        36        89         2
        37        37        45        75
        38        38         7        39
        39        39        34        58
        40        40        52        23
        41        41         5        72
        42        42        59        92
        43        43        73        65
        44        44         2        20
        45        45        12         2
        46        46        79         1
        47        47         4         7
        48        48        22        81
        49        49        39        28
        50        50        33        71
        51        51        65        90
        52        52        13         7
        53        53        64        28
        54        54        81        42
        55        55        22        65
        56        56         9        32
        57        57        49        56
        58        58        18        71
        59        59        91        15
        60        60        51        19
        61        61         6        14
        62        62        62        29
        63        63        29        48
        64        64        36         5
        65        65        29        98
        66        66        61        40
        67        67        63        59
        68        68        87        46
        69        69        98        10
        70        70        11        37
        71        71        74        86
        72        72        98        49
        73        73        12        43
        74        74        64        72
        75        75         6        67
        76        76        54         9
        77        77        31        50
        78        78        27        43
        79        79        45        82
        80        80        21        52
        81        81         1        75
        82        82        48        57
        83        83         4        46
        84        84         6        69
        85        85        10        25
        86        86        19        77
        87        87         6        91
        88        88        79        84
        89        89        35        23
        90        90        84        45
        91        91        71        43
        92        92        38        96
        93        93        33        90
        94        94        57        66
        95        95        78        53
        96        96        20        66
        97        97        20        75
        98        98        52        32
        99        99        50        26
       100       100        62        45
       101       101        17        95
       102       102        47        94
       103       103        67        76
       104       104        80        55
       105       105        80        93
       106       106        96        63
       107       107        74        31
       108       108        83        99
       109       109        38        63
       110       110        26        99
       111       111        29        57
       112       112       100        60
       113       113        97        94
       114       114        88        51
       115       115        48         8
       116       116        62        74
       117       117        59         5
       118       118        35        85
       119       119        41        18
       120       120        81        14
       121       121        30        58
       122       122        17        77
       123       123        49        97
       124       124        88        97
       125       125        24        16
       126       126        37        55
       127       127        95        44
       128       128        47        61
       129       129        87        77
       130       130        73        33
       131       131        21         3
       132       132       100        73
       133       133        90        27
       134       134        56        47
       135       135         9        86
       136       136        87        11
       137       137        38        76
       138       138        23        83
       139       139        11        89
       140       140        76        21
       141       141        16        14
       142       142        51        94
       143       143        92        78
       144       144        78        85
       145       145        15         1
       146       146         8        69
       147       147        60        33
       148       148        70        41
       149       149        88        50
       150       150        93        24
       151       151         3        35
       152       152        68        67
       153       153        19         4
       154       154        28        30
       155       155        17        44
       156       156        69        16
       157       157        53        60

Angle Coeffs # ['angleID', 'energy', 'value (deg)']

    110   0.010000  50.503559
     74   0.010000 149.034013
     94   0.010000  88.910625
    293   0.010000 176.428824
    192   0.010000  54.165201
     18   0.010000 170.046563
     35   0.010000  79.348521
    266   0.010000  65.674781
    249   0.010000  65.561084
    236   0.010000 170.648651
    227   0.010000 109.435431
    130   0.010000 113.674228
    298   0.010000  61.938478
    209   0.010000 157.574278
    119   0.010000  62.994693
    187   0.010000  58.087885
     50   0.010000 155.806777
    170   0.010000  57.488991
    218   0.010000  69.021919
    193   0.010000 155.764627
    104   0.010000 163.482533
     71   0.010000 108.711257
     78   0.010000 166.072837
     24   0.010000 176.811025
    175   0.010000  62.352925
     12   0.010000 170.832886
    273   0.010000 165.728522
    143   0.010000  59.179116
    285   0.010000  67.493594
    316   0.010000  49.520906
    250   0.010000 118.895760
    328   0.010000 159.053296
    287   0.010000  64.329890
    134   0.010000  91.357184
    320   0.010000  97.326542
    135   0.010000  55.844469
    272   0.010000 108.425622
     70   0.010000  53.446902
    176   0.010000  72.773401
    153   0.010000 173.387828
    114   0.010000  60.614145
    271   0.010000  57.302900
    291   0.010000 123.625946
      9   0.010000 164.920764
    105   0.010000  57.441812
    148   0.010000  62.376177
     26   0.010000 119.006507
     76   0.010000 118.060512
     90   0.010000  92.462418
    225   0.010000  56.707668
     75   0.010000  44.893150
     56   0.010000  61.123657
    253   0.010000  57.200946
    234   0.010000  68.326529
    220   0.010000 109.233435
     30   0.010000 120.447363
     20   0.010000 123.341542
     33   0.010000  68.557305
    113   0.010000 122.657607
    215   0.010000 101.030237
    259   0.010000 117.920433
    152   0.010000  60.690429
    149   0.010000 123.144558
    237   0.010000 106.996476
    238   0.010000  56.624439
    216   0.010000  66.358726
    126   0.010000  58.936910
     69   0.010000 140.568002
    156   0.010000  66.482504
    239   0.010000 164.265384
     31   0.010000 131.983391
    159   0.010000 145.399417
    340   0.010000  72.989212
    309   0.010000 160.498167
    133   0.010000 147.201653
    157   0.010000  73.994347
    322   0.010000  73.503152
    276   0.010000 159.759843
    278   0.010000 125.029868
     45   0.010000 155.780566
     85   0.010000 112.042618
    210   0.010000 102.967773
    141   0.010000  94.705296
    165   0.010000 177.133345
    290   0.010000 128.144950
    288   0.010000  97.544234
    318   0.010000 115.355930
     79   0.010000  65.610712
     72   0.010000 162.158159
    279   0.010000  62.794464
      6   0.010000  53.797837
     66   0.010000  54.016567
    254   0.010000 163.243345
    244   0.010000  95.892424
    200   0.010000  64.097956
    301   0.010000 165.979873
     99   0.010000  49.405558
    270   0.010000 145.374827
    277   0.010000 105.604618
    217   0.010000  81.980219
    127   0.010000 175.939179
     62   0.010000 104.168305
      8   0.010000  62.774108
    341   0.010000  72.833313
    264   0.010000 103.823147
     38   0.010000 104.721962
     54   0.010000 157.898590
    263   0.010000 147.842216
    168   0.010000  63.267639
    281   0.010000 168.399082
    214   0.010000 167.388963
    108   0.010000 142.590148
     22   0.010000 119.083257
    161   0.010000  79.727717
     55   0.010000  97.080585
    267   0.010000 178.579414
     80   0.010000  66.004689
    112   0.010000 176.728247
    313   0.010000  70.101322
    323   0.010000  55.746792
    331   0.010000 113.379466
    178   0.010000  53.735642
     28   0.010000 170.786101
     13   0.010000 169.930735
    121   0.010000 113.043327
     40   0.010000  95.205954
    195   0.010000  76.199854
    304   0.010000 172.077375
    222   0.010000 157.076897
    246   0.010000 150.037253
    312   0.010000 170.758335
      2   0.010000  54.882374
     60   0.010000  68.695456
     48   0.010000 168.829164
    185   0.010000  69.277508
    107   0.010000  77.683202
     61   0.010000  51.859150
     52   0.010000  98.655454
    224   0.010000 179.004221
    194   0.010000 128.035519
     59   0.010000  67.426897
    207   0.010000 176.727105
     97   0.010000 110.537519
     44   0.010000  86.678405
    109   0.010000 146.315608
    286   0.010000 161.874124
    289   0.010000 108.229104
     14   0.010000 132.031438
    124   0.010000 111.200856
    125   0.010000 170.137766
    203   0.010000  60.149453
    115   0.010000 174.249608
    228   0.010000  68.804823
    172   0.010000 148.918059
    155   0.010000 172.142088
     57   0.010000 158.204242
    102   0.010000 179.257110
      7   0.010000 132.305128
    212   0.010000  51.294550
    179   0.010000 111.662852
    199   0.010000 147.130059
     39   0.010000 108.274437
    230   0.010000  68.704915
    325   0.010000 129.249944
    260   0.010000  64.658909
     73   0.010000  92.905476
     91   0.010000 142.244802
    186   0.010000  67.021934
    169   0.010000  91.946731
    177   0.010000 135.126326
    269   0.010000  72.413753
    307   0.010000  49.798533
    330   0.010000 102.188716
    248   0.010000  74.995179
     46   0.010000  58.857694
    138   0.010000  99.512368
    202   0.010000 108.784285
     83   0.010000  98.704660
    167   0.010000 117.997228
    213   0.010000  54.606505
    308   0.010000 110.699634
    144   0.010000 111.667066
     42   0.010000 147.003601
     25   0.010000  81.052073
    120   0.010000 126.004536
    166   0.010000 178.735133
     77   0.010000  48.012326
    315   0.010000  79.634026
     65   0.010000 106.325722
    106   0.010000  64.906946
     93   0.010000  68.753936
    140   0.010000 148.181362
    317   0.010000 164.876836
    206   0.010000 106.398781
    297   0.010000  74.554197
      4   0.010000 116.571945
    158   0.010000  71.405070
    231   0.010000 171.932671
    174   0.010000  66.859696
    311   0.010000  60.514305
    189   0.010000  96.924983
     89   0.010000 164.274637
     95   0.010000  64.840657
    326   0.010000 118.383075
    128   0.010000  62.264951
    232   0.010000  55.746774
      1   0.010000 163.283110
    296   0.010000 143.446188
     34   0.010000  63.707194
     49   0.010000  78.317068
     64   0.010000  52.309154
    275   0.010000  96.925560
     16   0.010000  58.037827
    160   0.010000  65.814545
    332   0.010000 109.518047
    338   0.010000  49.595828
    191   0.010000 165.997701
     32   0.010000  63.426086
    319   0.010000  60.912734
     37   0.010000 160.072084
     19   0.010000 117.575201
     96   0.010000 153.751282
    139   0.010000  53.476066
     47   0.010000 109.971471
      3   0.010000 108.400737
    131   0.010000  54.347654
    208   0.010000  51.673223
    151   0.010000 112.697399
    284   0.010000 152.199308
    329   0.010000  56.864580
    137   0.010000 163.149693
    188   0.010000 155.012868
    339   0.010000 159.728366
    294   0.010000  60.813050
    310   0.010000 110.244030
     84   0.010000 157.002552
    122   0.010000 174.500277
    327   0.010000 112.366981
     63   0.010000 158.184872
     51   0.010000  77.489709
    283   0.010000  84.705713
    240   0.010000 134.547480
     27   0.010000 159.941420
    223   0.010000 124.288111
     68   0.010000 108.121240
     17   0.010000 112.008735
    205   0.010000  70.328325
    282   0.010000  62.235404
    247   0.010000 140.556263
    196   0.010000  97.155449
    116   0.010000 127.581410
     81   0.010000 131.615401
    262   0.010000  44.019069
     87   0.010000 167.105635
    305   0.010000  61.793578
    181   0.010000 165.398493
    336   0.010000  97.331329
     82   0.010000  58.297891
     11   0.010000 114.121299
    333   0.010000 137.102487
    314   0.010000 149.735349
    146   0.010000 175.598060
    337   0.010000 150.675806
    303   0.010000  50.040970
    252   0.010000  63.144366
    101   0.010000  55.965472
    302   0.010000 115.938904
    162   0.010000 145.542261
    204   0.010000 168.933738
     58   0.010000 136.122353
    164   0.010000 119.599016
    154   0.010000 121.375408
     10   0.010000  56.711586
    306   0.010000 110.283797
    324   0.010000 168.113773
    342   0.010000 145.822525
    123   0.010000  61.456951
    300   0.010000 179.647208
    226   0.010000 178.240254
    257   0.010000 156.135808
    299   0.010000 117.708730
    182   0.010000 100.956635
    150   0.010000  60.768381
     21   0.010000  53.469482
     86   0.010000  80.851747
    292   0.010000 115.615774
    265   0.010000 115.745805
    171   0.010000 149.435721
     29   0.010000  68.766535
    256   0.010000  73.249704
    117   0.010000  58.168981
    235   0.010000  63.652175
     43   0.010000  69.102161
    255   0.010000 106.042399
     15   0.010000  57.922000
    211   0.010000 105.901055
    197   0.010000 154.093228
    258   0.010000  82.886105
     41   0.010000  51.797647
    129   0.010000 129.713167
     67   0.010000 111.310758
     98   0.010000 159.943077
    111   0.010000  95.812049
      5   0.010000 111.122927
    321   0.010000 158.239276
    184   0.010000 136.299442
    142   0.010000 170.846182
    274   0.010000 103.314597
    201   0.010000  83.032103
     88   0.010000  71.812218
    335   0.010000 102.940305
    242   0.010000 168.828082
    147   0.010000  51.982770
    243   0.010000  61.187136
     36   0.010000 143.055715
    251   0.010000 177.959874
    295   0.010000  68.891990
    198   0.010000  56.937779
    334   0.010000  47.735501
    219   0.010000 151.002138
    261   0.010000 177.420658
    233   0.010000 124.073304
    183   0.010000  93.644872
    136   0.010000  63.637324
    103   0.010000 106.040722
    221   0.010000  47.843462
    132   0.010000 168.021882
    268   0.010000  72.961074
    145   0.010000 123.615290
    190   0.010000 111.832500
     23   0.010000  64.105718
    241   0.010000 107.640946
    180   0.010000 154.692277
    100   0.010000 123.291638
    280   0.010000 129.365513
    245   0.010000  54.144829
    173   0.010000  82.058364
    163   0.010000  59.136117
     92   0.010000  73.490866
    118   0.010000  63.009843
    229   0.010000 119.362413
     53   0.010000  59.243135

Angles # ['angleID', 'angleType', 'atom1', 'atom2', 'atom3']

       110       110        31        50        88
        74        74        82         9        54
        94        94        67        76        38
       293       293        16        58        30
       192       192         4         7        13
        18        18        48         8        69
        35        35         1        84        45
       266       266        73        65        22
       249       249        17        95        44
       236       236        65        73       100
       227       227        34        39        28
       130       130        92        59        63
       298       298        15        42        27
       209       209        18        17        77
       119       119        13        61        47
       187       187         7         4        46
        50        50        29        98        49
       170       170        70        53        60
       218       218        19        77        87
       193       193        36        64        28
       104       104        31        32        52
        71        71        79        54         9
        78        78        54         9        86
        24        24        69         6        91
       175       175        41        99        83
        12        12        57        48         8