LAMMPS (2 Aug 2023 - Update 3)
  using 1 OpenMP thread(s) per MPI task

variable dt equal 0.01
variable strain equal 0.03
variable srate equal 1e-05
variable M equal 1000 # averaging time for properties
variable strainsteps equal ${strain}/${dt}/${srate}
variable strainsteps equal 0.03/${dt}/${srate}
variable strainsteps equal 0.03/0.01/${srate}
variable strainsteps equal 0.03/0.01/1e-05


dimension 2
include init.mod

# NOTE: This script can be modified for different atomic structures,
# units, etc. See in.elastic for more info.
#

# Define the finite deformation size. Try several values of this
# variable to verify that results do not depend on it.
# variable up equal 1.0e-1

# Define the amount of random jiggle for atoms
# This prevents atoms from staying on saddle points
# variable atomjiggle equal 1.0e-6

# Uncomment one of these blocks, depending on what units
# you are using in LAMMPS and for output

# metal units, elastic constants in eV/A^3
#units		metal
#variable cfac equal 6.2414e-7
#variable cunits string eV/A^3

# Choose potential
# metal units, elastic constants in GPa
units		metal
atom_style	full
#pair_style      lj/cut 1.0
#pair_style      yukawa 1.0 2.0
#pair_modify     mix arithmetic
bond_style      harmonic
angle_style     harmonic
dihedral_style  zero
special_bonds   amber
variable cfac equal 1.0e-4
variable cunits string GPa
boundary	p p p

# Need to set mass to something, just to satisfy LAMMPS
#mass 1 1.0e-20
read_data final_result.lmp
Reading data file ...
  triclinic box = (-5.477606 -5.477606 -0.1) to (5.477606 5.477606 0.1) with tilt (0 0 0)
  1 by 1 by 1 MPI processor grid
WARNING: Atom style in data file ['atomID', 'moleculeID', 'atomType', 'charge', 'x', 'y', 'z'] differs from currently defined atom style full (src/read_data.cpp:621)
  reading atoms ...
  100 atoms
WARNING: Bond style ['bondID', 'bondCoeff', 'd'] in data file differs from currently defined bond style harmonic (src/read_data.cpp:724)
  scanning bonds ...
  4 = max bonds/atom
WARNING: Angle style ['angleID', 'energy', 'value (deg)'] in data file differs from currently defined angle style harmonic (src/read_data.cpp:737)
  scanning angles ...
  6 = max angles/atom
  reading bonds ...
  157 bonds
  reading angles ...
  342 angles
Finding 1-2 1-3 1-4 neighbors ...
  special bond factors lj:    0        0        0.5     
  special bond factors coul:  0        0        0.8333333333333334
     4 = max # of 1-2 neighbors
     9 = max # of 1-3 neighbors
    29 = max # of 1-4 neighbors
    24 = max # of special neighbors
  special bonds CPU = 0.000 seconds
  read_data CPU = 0.004 seconds

# real units, elastic constants in GPa
#units		real
#variable cfac equal 1.01325e-4
#variable cunits string GPa

# Define minimization parameters
variable etol equal 0.0
variable ftol equal 5.0e-10
variable maxiter equal 100000
variable maxeval equal 20000
variable dmax equal 1.0e-2
include potential.mod

# NOTE: This script can be modified for different pair styles
# See in.elastic for more info.

# Setup neighbor style
neighbor 3.0 nsq
neigh_modify once no every 1 delay 0 check yes
comm_modify cutoff 2.0

# Setup minimization style
min_style	     cg
min_modify	     dmax ${dmax} line quadratic
min_modify	     dmax 0.01 line quadratic

timestep	0.001


# Setup output
thermo		500
thermo_style custom step temp pe ebond eangle edihed press pxx pyy pzz pxy pxz pyz lx ly lz vol
# thermo_style custom step temp atoms vx vy vz
thermo_modify norm no


#change_box all triclinic
comm_modify mode single cutoff 10.0 vel yes
atom_modify sort 0 0


# Compute initial state
fix 3 all box/relax x 0 y 0 # xy 0  #MS comment: relax if the network is periodic
minimize ${etol} ${ftol} ${maxiter} ${maxeval}
minimize 0 ${ftol} ${maxiter} ${maxeval}
minimize 0 5e-10 ${maxiter} ${maxeval}
minimize 0 5e-10 100000 ${maxeval}
minimize 0 5e-10 100000 20000
WARNING: Energy due to 3 extra global DOFs will be included in minimizer energies
 (src/min.cpp:228)
WARNING: Inconsistent image flags (src/domain.cpp:815)
Per MPI rank memory allocation (min/avg/max) = 9.851 | 9.851 | 9.851 Mbytes
   Step          Temp          PotEng         E_bond        E_angle        E_dihed         Press           Pxx            Pyy            Pzz            Pxy            Pxz            Pyz             Lx             Ly             Lz           Volume    
         0   0              4.1166444e-11  4.1166351e-11  9.2532297e-17  0              0.15206513     0.20535677     0.098773496    0              0.032628968    0              0              10.955212      10.955212      0.2            120.01667    
       148   0              1.1104565e-12  1.5398879e-13  9.5646774e-13  0              3.6664353e-07 -1.7130579e-06  2.4463449e-06  0              0.0042761249   0              0              10.955214      10.955213      0.2            120.0167     
Loop time of 0.00889526 on 1 procs for 148 steps with 100 atoms

99.7% CPU use with 1 MPI tasks x 1 OpenMP threads

Minimization stats:
  Stopping criterion = force tolerance
  Energy initial, next-to-last, final = 
    4.11664437611692e-11 1.11045658003342e-12 1.11045652627539e-12
  Force two-norm initial, final = 2.4454751e-05 4.9386928e-10
  Force max component initial, final = 1.5382972e-05 1.8325211e-10
  Final line search alpha, max atom move = 1 1.8325211e-10
  Iterations, force evaluations = 148 296

MPI task timing breakdown:
Section |  min time  |  avg time  |  max time  |%varavg| %total
---------------------------------------------------------------
Pair    | 0          | 0          | 0          |   0.0 |  0.00
Bond    | 0.0054399  | 0.0054399  | 0.0054399  |   0.0 | 61.15
Neigh   | 0          | 0          | 0          |   0.0 |  0.00
Comm    | 0.0010485  | 0.0010485  | 0.0010485  |   0.0 | 11.79
Output  | 0          | 0          | 0          |   0.0 |  0.00
Modify  | 0          | 0          | 0          |   0.0 |  0.00
Other   |            | 0.002407   |            |       | 27.06

Nlocal:            100 ave         100 max         100 min
Histogram: 1 0 0 0 0 0 0 0 0 0
Nghost:            704 ave         704 max         704 min
Histogram: 1 0 0 0 0 0 0 0 0 0
Neighs:              0 ave           0 max           0 min
Histogram: 1 0 0 0 0 0 0 0 0 0

Total # of neighbors = 0
Ave neighs/atom = 0
Ave special neighs/atom = 18.52
Neighbor list builds = 0
Dangerous builds = 0
thermo 100
# thermo_style custom step atoms temp press c_vx c_vy c_vz
unfix 3
fix 2d all enforce2d


# These formulas define the derivatives w.r.t. strain components
# Constants uses $, variables use v_
timestep        ${dt}
timestep        0.01
variable nsteps equal round(${strainsteps})
variable nsteps equal round(300000)

#fix             4 all nve
#fix		     6 all press/berendsen y  0.0 0.0 1 x 0.0 0.0 10
#fix             6 all npt temp 0.0001 0.0001 1000.0 y 0.0 0.0 1000.0
fix             5 all langevin 1e-07 1e-07 10 904297
fix             6 all nph y 0.0 0.0 1000.0 ptemp 0.0001
fix     	     9 all deform 1 x erate -${srate} units box remap x
fix     	     9 all deform 1 x erate -1e-05 units box remap x

# For PLUMED2
# fix 22 all plumed plumedfile plumed.dat outfile plumed.out

#To avoid flying ice cube phenomenon:
fix 21 all momentum 100 linear 1 1 1 angular

dump 1 all custom 912 dump.lammpstrj id x y z vx vy vz
run  ${nsteps}
run  300000
WARNING: Inconsistent image flags (src/domain.cpp:815)
Per MPI rank memory allocation (min/avg/max) = 8.726 | 8.726 | 8.726 Mbytes
   Step          Temp          PotEng         E_bond        E_angle        E_dihed         Press           Pxx            Pyy            Pzz            Pxy            Pxz            Pyz             Lx             Ly             Lz           Volume    
       148   0              1.1104565e-12  1.5398879e-13  9.5646774e-13  0              3.6668511e-07 -1.7130783e-06  2.4464485e-06  0              0.0042761248   0              0              10.955214      10.955213      0.2            120.0167     
       200   9.0901805e-09  1.70169e-09    1.6812076e-09  2.0482384e-11  0              4.4618674      8.911103       0.012631843    0              0.44553022     0              0              10.955157      10.955222      0.2            120.01618    
       300   3.6158433e-08  1.4794558e-08  1.4627982e-08  1.665759e-10   0              13.126036      26.27063      -0.018558066    0              1.2927673      0              0              10.955047      10.955241      0.2            120.01518    
       400   1.1950563e-07  4.030808e-08   3.985441e-08   4.5367083e-10  0              21.651579      43.35124      -0.048082785    0              2.1243559      0              0              10.954938      10.955258      0.2            120.01417    
       500   3.2395454e-07  7.7258088e-08  7.6374155e-08  8.8393356e-10  0              29.955214      59.99027      -0.079841838    0              2.9427031      0              0              10.954828      10.955275      0.2            120.01315    
       600   6.7839445e-07  1.245649e-07   1.2309818e-07  1.4667138e-09  0              38.004332      76.117243     -0.10857866     0              3.7528116      0              0              10.954718      10.95529       0.2            120.01211    
       700   1.2633306e-06  1.8100375e-07  1.7878967e-07  2.2140749e-09  0              45.757281      91.648294     -0.13373239     0              4.5558777      0              0              10.954609      10.955303      0.2            120.01106    
       800   2.1588638e-06  2.4530843e-07  2.4215793e-07  3.1504983e-09  0              53.170002      106.50026     -0.16025491     0              5.3300888      0              0              10.954499      10.955315      0.2            120.00999    
       900   3.3266182e-06  3.1633245e-07  3.1201788e-07  4.3145679e-09  0              60.223547      120.63112     -0.18402189     0              6.0796667      0              0              10.95439       10.955324      0.2            120.00889    
      1000   4.7645975e-06  3.9316189e-07  3.8740262e-07  5.7592678e-09  0              66.91574       134.03437     -0.20288614     0              6.7964539      0              0              10.95428       10.955332      0.2            120.00777    
      1100   6.4139562e-06  4.7505383e-07  4.6750186e-07  7.5519755e-09  0              73.248601      146.71695     -0.21975043     0              7.465455       0              0              10.954171      10.955337      0.2            120.00663    
      1200   8.2220738e-06  5.6152391e-07  5.5175917e-07  9.7647478e-09  0              79.248749      158.72866     -0.23115779     0              8.1111209      0              0              10.954061      10.95534       0.2            120.00546    
      1300   1.0262501e-05  6.5212576e-07  6.3965878e-07  1.2466984e-08  0              84.925129      170.09229     -0.24203276     0              8.7464507      0              0              10.953952      10.95534       0.2            120.00427    
      1400   1.2497491e-05  7.464221e-07   7.306648e-07   1.5757293e-08  0              90.290681      180.82608     -0.24471993     0              9.3668188      0              0              10.953842      10.955339      0.2            120.00305    
      1500   1.461197e-05   8.4427025e-07  8.2454856e-07  1.972169e-08   0              95.375064      190.9956      -0.24547424     0              9.9740928      0              0              10.953732      10.955335      0.2            120.00181    
      1600   1.6653519e-05  9.4573493e-07  9.2129987e-07  2.4435058e-08  0              100.22309      200.68888     -0.24269193     0              10.596476      0              0              10.953623      10.95533       0.2            120.00055    
      1700   1.886638e-05   1.0505773e-06  1.0205879e-06  2.9989452e-08  0              104.86165      209.95876     -0.2354554      0              11.203707      0              0              10.953513      10.955322      0.2            119.99927    
      1800   2.103115e-05   1.1585479e-06  1.1220864e-06  3.6461447e-08  0              109.30834      218.84269     -0.22600823     0              11.811728      0              0              10.953404      10.955312      0.2            119.99796    
      1900   2.3179838e-05  1.2696227e-06  1.2256916e-06  4.3931079e-08  0              113.607        227.42473     -0.21072708     0              12.422069      0              0              10.953294      10.955301      0.2            119.99663    
      2000   2.5297802e-05  1.3836027e-06  1.3311213e-06  5.2481408e-08  0              117.76219      235.7178      -0.1934072      0              13.023798      0              0              10.953185      10.955287      0.2            119.99529    
      2100   2.7215389e-05  1.5005475e-06  1.4383894e-06  6.2158049e-08  0              121.80735      243.78543     -0.17072191     0              13.596408      0              0              10.953075      10.955272      0.2            119.99392    
      2200   2.9332118e-05  1.6203156e-06  1.5472903e-06  7.302526e-08   0              125.7536       251.65259     -0.14539688     0              14.143099      0              0              10.952966      10.955254      0.2            119.99253    
      2300   3.1274672e-05  1.7429704e-06  1.6578058e-06  8.5164554e-08  0              129.62896      259.37577     -0.11784119     0              14.688459      0              0              10.952856      10.955236      0.2            119.99112    
      2400   3.3208119e-05  1.8683888e-06  1.7697701e-06  9.8618704e-08  0              133.42771      266.94277     -0.087346398    0              15.216046      0              0              10.952747      10.955215      0.2            119.98969    
      2500   3.5094628e-05  1.9965118e-06  1.8831016e-06  1.1341028e-07  0              137.16803      274.3915      -0.055428423    0              15.710354      0              0              10.952637      10.955193      0.2            119.98825    
      2600   3.6961225e-05  2.1273027e-06  1.9977017e-06  1.2960101e-07  0              140.8584       281.74195     -0.025137426    0              16.170794      0              0              10.952527      10.95517       0.2            119.9868     
      2700   3.8631197e-05  2.2608516e-06  2.1136565e-06  1.471951e-07   0              144.50061      288.99396      0.0072648633   0              16.593153      0              0              10.952418      10.955146      0.2            119.98533    
      2800   4.0424489e-05  2.3971586e-06  2.2309496e-06  1.662089e-07   0              148.10862      296.17859      0.038641353    0              17.000888      0              0              10.952308      10.95512       0.2            119.98385    
      2900   4.1924606e-05  2.5362993e-06  2.3496589e-06  1.8664046e-07  0              151.67629      303.28353      0.069045468    0              17.372511      0              0              10.952199      10.955094      0.2            119.98236    
      3000   4.3435269e-05  2.6782581e-06  2.46974e-06    2.085181e-07   0              155.21335      310.32915      0.097538967    0              17.718911      0              0              10.952089      10.955066      0.2            119.98086    
      3100   4.5123403e-05  2.823002e-06   2.5911208e-06  2.3188115e-07  0              158.71271      317.2988       0.12661511     0              18.036661      0              0              10.95198       10.955037      0.2            119.97934    
      3200   4.6756792e-05  2.9703044e-06  2.7135544e-06  2.5674999e-07  0              162.15722      324.16121      0.15324341     0              18.334334      0              0              10.95187       10.955007      0.2            119.97781    
      3300   4.8432728e-05  3.120267e-06   2.8370872e-06  2.8317978e-07  0              165.54285      330.90915      0.17654103     0              18.627552      0              0              10.951761      10.954976      0.2            119.97627    
      3400   5.010594e-05   3.2726646e-06  2.9614826e-06  3.1118204e-07  0              168.86666      337.53644      0.19688342     0              18.911309      0              0              10.951651      10.954944      0.2            119.97473    
      3500   5.1689147e-05  3.4276214e-06  3.0868357e-06  3.4078568e-07  0              172.13523      344.05628      0.21418527     0              19.175739      0              0              10.951541      10.954912      0.2            119.97317    
      3600   5.3195432e-05  3.5850308e-06  3.2130079e-06  3.7202291e-07  0              175.34621      350.46492      0.22749711     0              19.411349      0              0              10.951432      10.954878      0.2            119.9716     
      3700   5.4688224e-05  3.7450522e-06  3.3401249e-06  4.0492739e-07  0              178.51079      356.78487      0.23672014     0              19.624695      0              0              10.951322      10.954844      0.2            119.97003    
      3800   5.5956629e-05  3.9077251e-06  3.468222e-06   4.3950306e-07  0              181.63998      363.03685      0.24310267     0              19.827017      0              0              10.951213      10.954809      0.2            119.96845    
      3900   5.7162138e-05  4.0732278e-06  3.597525e-06   4.7570279e-07  0              184.7431       369.238        0.24820794     0              20.038694      0              0              10.951103      10.954774      0.2            119.96686    
      4000   5.8459373e-05  4.2412707e-06  3.7276239e-06  5.1364678e-07  0              187.81046      375.37516      0.24576416     0              20.26805       0              0              10.950994      10.954737      0.2            119.96526    
      4100   6.002273e-05   4.4119971e-06  3.8586681e-06  5.5332894e-07  0              190.85208      381.46798      0.23619234     0              20.524982      0              0              10.950884      10.9547        0.2            119.96365    
      4200   6.1457726e-05  4.585109e-06   3.9902654e-06  5.9484361e-07  0              193.86422      387.50226      0.22618786     0              20.803025      0              0              10.950775      10.954663      0.2            119.96204    
      4300   6.2501736e-05  4.7607591e-06  4.1226187e-06  6.3814046e-07  0              196.85072      393.48878      0.21266015     0              21.113586      0              0              10.950665      10.954624      0.2            119.96042    
      4400   6.3859651e-05  4.9390888e-06  4.2558837e-06  6.8320513e-07  0              199.82009      399.44437      0.19580959     0              21.43719       0              0              10.950555      10.954586      0.2            119.9588     
      4500   6.4971989e-05  5.120033e-06   4.3900097e-06  7.3002331e-07  0              202.7671       405.35661      0.17758422     0              21.759421      0              0              10.950446      10.954546      0.2            119.95717    
      4600   6.6251756e-05  5.3036579e-06  4.5250535e-06  7.7860448e-07  0              205.70363      411.25287      0.15438385     0              22.104609      0              0              10.950336      10.954506      0.2            119.95553    
      4700   6.742654e-05   5.4898441e-06  4.660815e-06   8.2902915e-07  0              208.62421      417.12236      0.12605133     0              22.456569      0              0              10.950227      10.954466      0.2            119.95389    
      4800   6.853376e-05   5.6787552e-06  4.7974657e-06  8.8128953e-07  0              211.53347      422.96874      0.098201329    0              22.821188      0              0              10.950117      10.954425      0.2            119.95224    
      4900   6.9726991e-05  5.8702859e-06  4.9348281e-06  9.3545781e-07  0              214.43188      428.79637      0.067387044    0              23.189107      0              0              10.950008      10.954384      0.2            119.95059    
      5000   7.0721953e-05  6.0644864e-06  5.0729966e-06  9.9148975e-07  0              217.30966      434.58245      0.036873477    0              23.556172      0              0              10.949898      10.954342      0.2            119.94893    
      5100   7.1851873e-05  6.2612961e-06  5.2118283e-06  1.0494677e-06  0              220.15485      440.30644      0.0032646446   0              23.897708      0              0              10.949789      10.954301      0.2            119.94728    
      5200   7.2773955e-05  6.4607894e-06  5.3514497e-06  1.1093397e-06  0              222.9787       445.98792     -0.030521624    0              24.214125      0              0              10.949679      10.954259      0.2            119.94562    
      5300   7.3919005e-05  6.6629488e-06  5.4918942e-06  1.1710546e-06  0              225.76993      451.60218     -0.062310123    0              24.527241      0              0              10.94957       10.954216      0.2            119.94395    
      5400   7.4995625e-05  6.8675759e-06  5.6329201e-06  1.2346558e-06  0              228.54485      457.18284     -0.093152682    0              24.824908      0              0              10.94946       10.954174      0.2            119.94229    
      5500   7.6031013e-05  7.0748214e-06  5.7746731e-06  1.3001483e-06  0              231.30045      462.72418     -0.12328652     0              25.099531      0              0              10.94935       10.954131      0.2            119.94062    
      5600   7.6919607e-05  7.28481e-06    5.9173339e-06  1.3674762e-06  0              234.04367      468.23936     -0.15202278     0              25.355614      0              0              10.949241      10.954088      0.2            119.93895    
      5700   7.7997263e-05  7.4973965e-06  6.0605102e-06  1.4368863e-06  0              236.76545      473.70847     -0.17756975     0              25.593466      0              0              10.949131      10.954045      0.2            119.93728    
      5800   7.8620882e-05  7.7127791e-06  6.2046167e-06  1.5081623e-06  0              239.48447      479.16955     -0.20060381     0              25.820326      0              0              10.949022      10.954001      0.2            119.9356     
      5900   7.9567623e-05  7.9308841e-06  6.3495966e-06  1.5812875e-06  0              242.19356      484.60646     -0.21934578     0              26.040378      0              0              10.948912      10.953957      0.2            119.93392    
      6000   8.0176314e-05  8.1519177e-06  6.495646e-06   1.6562717e-06  0              244.89888      490.03476     -0.2370069      0              26.27029       0              0              10.948803      10.953913      0.2            119.93223    
      6100   8.0956954e-05  8.3756727e-06  6.6424475e-06  1.7332252e-06  0              247.58903      495.42709     -0.24902326     0              26.512311      0              0              10.948693      10.953868      0.2            119.93054    
      6200   8.209134e-05   8.6020217e-06  6.7899045e-06  1.8121172e-06  0              250.2684       500.79169     -0.25489592     0              26.753241      0              0              10.948584      10.953824      0.2            119.92885    
      6300   8.302081e-05   8.8309672e-06  6.937993e-06   1.8929742e-06  0              252.93038      506.12175     -0.26098164     0              26.992058      0              0              10.948474      10.953778      0.2            119.92716    
      6400   8.3868577e-05  9.0625302e-06  7.0867339e-06  1.9757963e-06  0              255.57506      511.41152     -0.26139677     0              27.213314      0              0              10.948364      10.953733      0.2            119.92546    
      6500   8.4717169e-05  9.2967716e-06  7.2362478e-06  2.0605238e-06  0              258.2186       516.69384     -0.2566431      0              27.432034      0              0              10.948255      10.953687      0.2            119.92376    
      6600   8.5403721e-05  9.5337031e-06  7.3866394e-06  2.1470638e-06  0              260.85549      521.95949     -0.24851008     0              27.655478      0              0              10.948145      10.953641      0.2            119.92206    
      6700   8.6089201e-05  9.7735474e-06  7.5382248e-06  2.2353226e-06  0              263.49533      527.22677     -0.23610135     0              27.892544      0              0              10.948036      10.953595      0.2            119.92035    
      6800   8.7100941e-05  1.0016107e-05  7.690402e-06   2.3257048e-06  0              266.11229      532.44273     -0.21814959     0              28.138045      0              0              10.947926      10.953549      0.2            119.91865    
      6900   8.7576783e-05  1.0261323e-05  7.8430725e-06  2.41825e-06    0              268.71063      537.61979     -0.1985239      0              28.381817      0              0              10.947817      10.953502      0.2            119.91694    
      7000   8.8285771e-05  1.0509471e-05  7.9966754e-06  2.5127956e-06  0              271.30594      542.78577     -0.17389683     0              28.641531      0              0              10.947707      10.953456      0.2            119.91523    
      7100   8.8940176e-05  1.0760492e-05  8.1511552e-06  2.6093368e-06  0              273.88696      547.92298     -0.14905287     0              28.889264      0              0              10.947598      10.953409      0.2            119.91351    
      7200   8.9618668e-05  1.1014172e-05  8.3063118e-06  2.7078601e-06  0              276.45449      553.02739     -0.11841975     0              29.134212      0              0              10.947488      10.953362      0.2            119.9118     
      7300   9.0423049e-05  1.1270704e-05  8.4622902e-06  2.8084143e-06  0              279.0131       558.11504     -0.088846482    0              29.36342       0              0              10.947378      10.953314      0.2            119.91008    
      7400   9.1108706e-05  1.1529892e-05  8.6189499e-06  2.9109425e-06  0              281.56507      563.18612     -0.05598324     0              29.611068      0              0              10.947269      10.953267      0.2            119.90835    
      7500   9.1532666e-05  1.1791922e-05  8.7766197e-06  3.015302e-06   0              284.11589      568.25525     -0.023471266    0              29.851331      0              0              10.947159      10.953218      0.2            119.90663    
      7600   9.2345588e-05  1.2056623e-05  8.9348745e-06  3.1217489e-06  0              286.65756      573.30495      0.010171715    0              30.086972      0              0              10.94705       10.95317       0.2            119.9049     
      7700   9.3058537e-05  1.2324103e-05  9.0939747e-06  3.2301284e-06  0              289.19795      578.35091      0.044981751    0              30.32554       0              0              10.94694       10.953121      0.2            119.90316    
      7800   9.3680206e-05  1.2594253e-05  9.2537472e-06  3.3405056e-06  0              291.72811      583.37898      0.077247239    0              30.553947      0              0              10.946831      10.953073      0.2            119.90143    
      7900   9.4562825e-05  1.2867201e-05  9.4141825e-06  3.4530189e-06  0              294.24964      588.39238      0.10689123     0              30.799691      0              0              10.946721      10.953024      0.2            119.8997     
      8000   9.5175752e-05  1.3142824e-05  9.5751634e-06  3.5676604e-06  0              296.74636      593.35841      0.13431224     0              31.061088      0              0              10.946612      10.952975      0.2            119.89796    
      8100   9.5718426e-05  1.3421259e-05  9.7369807e-06  3.6842779e-06  0              299.2343       598.30632      0.16228273     0              31.325447      0              0              10.946502      10.952926      0.2            119.89622    
      8200   9.5884645e-05  1.3702662e-05  9.9000104e-06  3.8026512e-06  0              301.71719      603.24857      0.18580161     0              31.583238      0              0              10.946392      10.952877      0.2            119.89449    
      8300   9.6783594e-05  1.3986972e-05  1.006409e-05   3.922882e-06   0              304.19786      608.18936      0.2063518      0              31.838013      0              0              10.946283      10.952827      0.2            119.89275    
      8400   9.725544e-05   1.4273935e-05  1.0228807e-05  4.0451285e-06  0              306.66801      613.11335      0.2226696      0              32.094787      0              0              10.946173      10.952778      0.2            119.891      
      8500   9.755316e-05   1.4563893e-05  1.0394569e-05  4.1693244e-06  0              309.13415      618.03286      0.23544508     0              32.362509      0              0              10.946064      10.952728      0.2            119.88926    
      8600   9.8109871e-05  1.4856744e-05  1.0560998e-05  4.295746e-06   0              311.59642      622.94821      0.24463663     0              32.639614      0              0              10.945954      10.952678      0.2            119.88751    
      8700   9.8760232e-05  1.5152354e-05  1.0728056e-05  4.424298e-06   0              314.0525       627.85604      0.24896405     0              32.931053      0              0              10.945845      10.952628      0.2            119.88576    
      8800   9.9141791e-05  1.5450788e-05  1.0895929e-05  4.5548586e-06  0              316.49976      632.75112      0.24838954     0              33.21609       0              0              10.945735      10.952578      0.2            119.88401    
      8900   9.9599753e-05  1.5752138e-05  1.1064665e-05  4.6874725e-06  0              318.93517      637.62502      0.24531873     0              33.48841       0              0              10.945626      10.952527      0.2            119.88226    
      9000   9.9956375e-05  1.605647e-05   1.1234283e-05  4.8221871e-06  0              321.36179      642.48507      0.23850839     0              33.749811      0              0              10.945516      10.952477      0.2            119.88051    
      9100   0.00010045683  1.6363692e-05  1.140472e-05   4.9589728e-06  0              323.76969      647.31204      0.22733706     0              34.001849      0              0              10.945407      10.952427      0.2            119.87876    
      9200   0.0001010747   1.6673704e-05  1.1575843e-05  5.0978618e-06  0              326.16074      652.10875      0.21273891     0              34.240377      0              0              10.945297      10.952377      0.2            119.87701    
      9300   0.00010163562  1.6986525e-05  1.1747704e-05  5.2388206e-06  0              328.53807      656.88123      0.19492298     0              34.476816      0              0              10.945187      10.952326      0.2            119.87527    
      9400   0.0001025501   1.7301864e-05  1.1919841e-05  5.3820225e-06  0              330.90623      661.63872      0.17373758     0              34.704588      0              0              10.945078      10.952276      0.2            119.87351    
      9500   0.00010355607  1.7619657e-05  1.2092072e-05  5.527585e-06   0              333.26295      666.37466      0.15124132     0              34.947919      0              0              10.944968      10.952226      0.2            119.87176    
      9600   0.00010371221  1.7940245e-05  1.2265068e-05  5.6751769e-06  0              335.61157      671.09714      0.12600504     0              35.197959      0              0              10.944859      10.952175      0.2            119.87001    
      9700   0.00010410937  1.8263908e-05  1.2439452e-05  5.8244555e-06  0              337.96505      675.83227      0.0978343      0              35.437573      0              0              10.944749      10.952125      0.2            119.86826    
      9800   0.000104905    1.8590141e-05  1.2614044e-05  5.976097e-06   0              340.31176      680.55518      0.068329902    0              35.656234      0              0              10.94464       10.952074      0.2            119.86651    
      9900   0.00010518347  1.8919341e-05  1.2789645e-05  6.1296963e-06  0              342.66017      685.28295      0.037383022    0              35.88464       0              0              10.94453       10.952024      0.2            119.86475    
     10000   0.00010526294  1.9251603e-05  1.2966381e-05  6.2852224e-06  0              345.00973      690.01306      0.0063963722   0              36.1309        0              0              10.944421      10.951973      0.2            119.863      
     10100   0.00010557128  1.9586882e-05  1.3144177e-05  6.4427054e-06  0              347.34513      694.71661     -0.026356164    0              36.418487      0              0              10.944311      10.951922      0.2            119.86124    
     10200   0.00010584374  1.9925194e-05  1.3323246e-05  6.6019484e-06  0              349.67411      699.40792     -0.059690752    0              36.713524      0              0              10.944201      10.951871      0.2            119.85948    
     10300   0.00010626384  2.026638e-05   1.3503151e-05  6.7632295e-06  0              351.99592      704.08334     -0.09150819     0              36.976429      0              0              10.944092      10.95182       0.2            119.85773    
     10400   0.00010670914  2.0610398e-05  1.3683839e-05  6.9265585e-06  0              354.30513      708.73243     -0.1221641      0              37.227669      0              0              10.943982      10.951769      0.2            119.85597    
     10500   0.0001066978   2.0957504e-05  1.3865989e-05  7.0915157e-06  0              356.62224      713.39833     -0.15384281     0              37.472705      0              0              10.943873      10.951718      0.2            119.85421    
     10600   0.00010744316  2.130739e-05   1.4048922e-05  7.2584678e-06  0              358.95181      718.08262     -0.17900657     0              37.720416      0              0              10.943763      10.951666      0.2            119.85244    
     10700   0.00010783641  2.1660123e-05  1.4233025e-05  7.4270985e-06  0              361.30097      722.80241     -0.20047431     0              37.97094       0              0              10.943654      10.951615      0.2            119.85068    
     10800   0.00010832915  2.2015697e-05  1.441801e-05   7.5976863e-06  0              363.64661      727.51274     -0.21952836     0              38.210102      0              0              10.943544      10.951563      0.2            119.84891    
     10900   0.00010872465  2.2374148e-05  1.4603766e-05  7.7703818e-06  0              365.98671      732.20996     -0.2365529      0              38.455686      0              0              10.943435      10.951511      0.2            119.84715    
     11000   0.00010897727  2.2735478e-05  1.4790548e-05  7.9449299e-06  0              368.33368      736.91766     -0.25029778     0              38.709597      0              0              10.943325      10.95146       0.2            119.84539    
     11100   0.00010940957  2.3099758e-05  1.4978543e-05  8.1212152e-06  0              370.68238      741.62335     -0.25859853     0              38.965569      0              0              10.943215      10.951408      0.2            119.84362    
     11200   0.00010971707  2.3466863e-05  1.5167264e-05  8.2995993e-06  0              373.01785      746.29658     -0.26089003     0              39.209918      0              0              10.943106      10.951357      0.2            119.84186    
     11300   0.00010998133  2.383695e-05   1.5357072e-05  8.4798776e-06  0              375.34395      750.94849     -0.26059436     0              39.441121      0              0              10.942996      10.951305      0.2            119.84009    
     11400   0.00011015118  2.4210047e-05  1.5547677e-05  8.6623704e-06  0              377.66758      755.59253     -0.2573715      0              39.676213      0              0              10.942887      10.951254      0.2            119.83833    
     11500   0.00011052862  2.4586159e-05  1.57394e-05    8.846759e-06   0              379.99802      760.24371     -0.24766735     0              39.923667      0              0              10.942777      10.951202      0.2            119.83657    
     11600   0.00011091787  2.4964955e-05  1.5931629e-05  9.0333253e-06  0              382.313        764.85992     -0.23391016     0              40.162489      0              0              10.942668      10.951151      0.2            119.8348     
     11700   0.00011124742  2.5346743e-05  1.612485e-05   9.221893e-06   0              384.63006      769.47585     -0.21571846     0              40.414028      0              0              10.942558      10.951099      0.2            119.83304    
     11800   0.00011139492  2.5731466e-05  1.6318838e-05  9.4126281e-06  0              386.92838      774.05192     -0.19516209     0              40.65783       0              0              10.942449      10.951047      0.2            119.83127    
     11900   0.00011169986  2.6119252e-05  1.6514142e-05  9.6051101e-06  0              389.2293       778.63137     -0.17276594     0              40.900388      0              0              10.942339      10.950996      0.2            119.82951    
     12000   0.00011215203  2.6509923e-05  1.671027e-05   9.7996534e-06  0              391.52135      783.18776     -0.14507402     0              41.140127      0              0              10.94223       10.950944      0.2            119.82774    
     12100   0.00011223884  2.6903536e-05  1.6907375e-05  9.9961618e-06  0              393.80702      787.73212     -0.11807214     0              41.37254       0              0              10.94212       10.950892      0.2            119.82597    
     12200   0.00011274033  2.7300211e-05  1.7105708e-05  1.0194503e-05  0              396.10666      792.30111     -0.087789926    0              41.603653      0              0              10.94201       10.95084       0.2            119.8242     
     12300   0.00011319417  2.7699616e-05  1.7305095e-05  1.0394521e-05  0              398.41321      796.88345     -0.057031685    0              41.835819      0              0              10.941901      10.950787      0.2            119.82243    
     12400   0.00011384387  2.8101731e-05  1.7504922e-05  1.0596809e-05  0              400.71192      801.44837     -0.024519761    0              42.083012      0              0              10.941791      10.950735      0.2            119.82066    
     12500   0.00011443706  2.8506448e-05  1.7704611e-05  1.0801837e-05  0              402.99849      805.9865       0.010484605    0              42.323997      0              0              10.941682      10.950683      0.2            119.81889    
     12600   0.00011495042  2.8913916e-05  1.7904709e-05  1.1009207e-05  0              405.27263      810.50305      0.042207702    0              42.552915      0              0              10.941572      10.95063       0.2            119.81711    
     12700   0.0001152919   2.9324084e-05  1.810533e-05   1.1218754e-05  0              407.53619      815.00056      0.07182432     0              42.778323      0              0              10.941463      10.950578      0.2            119.81534    
     12800   0.00011567909  2.973711e-05   1.8306704e-05  1.1430406e-05  0              409.79019      819.47806      0.1023267      0              43.01663       0              0              10.941353      10.950525      0.2            119.81356    
     12900   0.00011583465  3.0153164e-05  1.8508886e-05  1.1644277e-05  0              412.03096      823.9302       0.13171894     0              43.260906      0              0              10.941244      10.950472      0.2            119.81179    
     13000   0.00011636106  3.0571971e-05  1.8711407e-05  1.1860563e-05  0              414.25941      828.36148      0.15732704     0              43.499826      0              0              10.941134      10.95042       0.2            119.81001    
     13100   0.00011674936  3.0993687e-05  1.8914995e-05  1.2078692e-05  0              416.50013      832.81869      0.18157473     0              43.731615      0              0              10.941024      10.950367      0.2            119.80823    
     13200   0.00011709268  3.141825e-05   1.9119079e-05  1.2299171e-05  0              418.73522      837.26938      0.20105746     0              43.956826      0              0              10.940915      10.950314      0.2            119.80646    
     13300   0.00011714838  3.1845809e-05  1.9324546e-05  1.2521263e-05  0              420.98098      841.74382      0.21813797     0              44.202786      0              0              10.940805      10.950262      0.2            119.80468    
     13400   0.00011730562  3.2276474e-05  1.953139e-05   1.2745084e-05  0              423.2352       846.24148      0.22892301     0              44.469418      0              0              10.940696      10.95021       0.2            119.80291    
     13500   0.00011761132  3.2710017e-05  1.9739212e-05  1.2970804e-05  0              425.48922      850.73979      0.2386513      0              44.759888      0              0              10.940586      10.950157      0.2            119.80114    
     13600   0.00011780631  3.3146428e-05  1.9947993e-05  1.3198435e-05  0              427.73218      855.22132      0.24304169     0              45.039955      0              0              10.940477      10.950106      0.2            119.79937    
     13700   0.00011794912  3.3586018e-05  2.0158291e-05  1.3427726e-05  0              429.97192      859.70145      0.24238508     0              45.300925      0              0              10.940367      10.950054      0.2            119.79761    
     13800   0.00011862339  3.4028366e-05  2.0369101e-05  1.3659264e-05  0              432.21116      864.18481      0.23751344     0              45.556861      0              0              10.940258      10.950002      0.2            119.79584    
     13900   0.00011915558  3.4473273e-05  2.0579858e-05  1.3893415e-05  0              434.43509      868.64284      0.22733418     0              45.840144      0              0              10.940148      10.94995       0.2            119.79408    
     14000   0.00011932488  3.4921072e-05  2.0791306e-05  1.4129766e-05  0              436.64476      873.07382      0.21569145     0              46.117948      0              0              10.940038      10.949898      0.2            119.79231    
     14100   0.00011936681  3.5371908e-05  2.1004009e-05  1.4367899e-05  0              438.85675      877.51318      0.20031297     0              46.396566      0              0              10.939929      10.949847      0.2            119.79054    
     14200   0.00011929149  3.5825879e-05  2.1217932e-05  1.4607947e-05  0              441.06116      881.93863      0.18369169     0              46.653446      0              0              10.939819      10.949795      0.2            119.78878    
     14300   0.00011936718  3.6283e-05     2.1433386e-05  1.4849614e-05  0              443.26491      886.37012      0.15970592     0              46.910029      0              0              10.93971       10.949743      0.2            119.78701    
     14400   0.00011964315  3.6743201e-05  2.1650468e-05  1.5092733e-05  0              445.47384      890.81317      0.13451791     0              47.150034      0              0              10.9396        10.949692      0.2            119.78525    
     14500   0.00011997873  3.7206268e-05  2.1868546e-05  1.5337722e-05  0              447.67589      895.24562      0.10615784     0              47.372106      0              0              10.939491      10.94964       0.2            119.78349    
     14600   0.0001201616   3.7672167e-05  2.2087305e-05  1.5584862e-05  0              449.86558      899.65456      0.076589011    0              47.588724      0              0              10.939381      10.949588      0.2            119.78172    
     14700   0.00012060708  3.8140959e-05  2.2306717e-05  1.5834242e-05  0              452.04971      904.0529       0.046525028    0              47.80181       0              0              10.939272      10.949536      0.2            119.77995    
     14800   0.00012046426  3.8612714e-05  2.2526899e-05  1.6085816e-05  0              454.232        908.44923      0.01476938     0              48.019402      0              0              10.939162      10.949484      0.2            119.77818    
     14900   0.00012061211  3.9087717e-05  2.2749018e-05  1.6338699e-05  0              456.42251      912.86104     -0.016018877    0              48.238903      0              0              10.939053      10.949432      0.2            119.77641    
     15000   0.00012101777  3.9565568e-05  2.2972035e-05  1.6593533e-05  0              458.61033      917.26522     -0.044561197    0              48.445995      0              0              10.938943      10.94938       0.2            119.77464    
     15100   0.00012038921  4.0046639e-05  2.3196836e-05  1.6849804e-05  0              460.81297      921.70041     -0.074471005    0              48.648145      0              0              10.938833      10.949328      0.2            119.77287    
     15200   0.00012085141  4.0530872e-05  2.3422764e-05  1.7108109e-05  0              463.02199      926.15113     -0.10714723     0              48.835079      0              0              10.938724      10.949276      0.2            119.7711     
     15300   0.00012104881  4.1017935e-05  2.3649594e-05  1.7368341e-05  0              465.23679      930.60867     -0.13509295     0              49.015895      0              0              10.938614      10.949224      0.2            119.76934    
     15400   0.00012125768  4.1507908e-05  2.3877148e-05  1.763076e-05   0              467.44551      935.05102     -0.15999782     0              49.193207      0              0              10.938505      10.949172      0.2            119.76757    
     15500   0.00012162747  4.2001041e-05  2.4106237e-05  1.7894804e-05  0              469.66874      939.52067     -0.18319817     0              49.398059      0              0              10.938395      10.94912       0.2            119.7658     
     15600   0.00012183145  4.2496883e-05  2.433592e-05   1.8160963e-05  0              471.89483      943.99382     -0.20416496     0              49.603809      0              0              10.938286      10.949068      0.2            119.76403    
     15700   0.00012229267  4.2995662e-05  2.4566417e-05  1.8429245e-05  0              474.12409      948.47275     -0.22456865     0              49.843856      0              0              10.938176      10.949016      0.2            119.76227    
     15800   0.00012249331  4.34973e-05    2.4797886e-05  1.8699414e-05  0              476.35448      952.94644     -0.23747932     0              50.083791      0              0              10.938067      10.948964      0.2            119.7605     
     15900   0.00012254578  4.400186e-05   2.503049e-05   1.897137e-05   0              478.58233      957.4108      -0.246144       0              50.316197      0              0              10.937957      10.948912      0.2            119.75873    
     16000   0.00012249707  4.4509538e-05  2.5264323e-05  1.9245215e-05  0              480.80659      961.86405     -0.25086105     0              50.567443      0              0              10.937847      10.948861      0.2            119.75697    
     16100   0.0001228954   4.5020247e-05  2.5499569e-05  1.9520679e-05  0              483.04096      966.3334      -0.25148036     0              50.807091      0              0              10.937738      10.948809      0.2            119.7552     
     16200   0.0001226538   4.5533977e-05  2.5736088e-05  1.9797889e-05  0              485.28183      970.81366     -0.25000402     0              51.046652      0              0              10.937628      10.948757      0.2            119.75344    
     16300   0.00012295231  4.6050806e-05  2.5974077e-05  2.0076729e-05  0              487.5367       975.31712     -0.24371536     0              51.304582      0              0              10.937519      10.948706      0.2            119.75168    
     16400   0.00012366214  4.6570244e-05  2.6212358e-05  2.0357886e-05  0              489.78758      979.80937     -0.23421121     0              51.556428      0              0              10.937409      10.948654      0.2            119.74991    
     16500   0.00012379603  4.7092509e-05  2.6451482e-05  2.0641026e-05  0              492.02998      984.28131     -0.22134231     0              51.795767      0              0              10.9373        10.948603      0.2            119.74815    
     16600   0.00012360937  4.76179e-05    2.669145e-05   2.092645e-05   0              494.25395      988.71288     -0.20498896     0              52.031906      0              0              10.93719       10.948551      0.2            119.74638    
     16700   0.00012356967  4.8146477e-05  2.6932246e-05  2.121423e-05   0              496.4842       993.15245     -0.18405293     0              52.269944      0              0              10.937081      10.948499      0.2            119.74461    
     16800   0.00012381293  4.8678e-05     2.7173694e-05  2.1504306e-05  0              498.71409      997.58889     -0.16070108     0              52.518662      0              0              10.936971      10.948447      0.2            119.74284    
     16900   0.00012425386  4.9212446e-05  2.741575e-05   2.1796696e-05  0              500.94113      1002.017      -0.13472435     0              52.774305      0              0              10.936861      10.948394      0.2            119.74107    
     17000   0.00012479848  4.9749525e-05  2.7658088e-05  2.2091437e-05  0              503.15116      1006.4106     -0.10829592     0              53.018758      0              0              10.936752      10.948342      0.2            119.7393     
     17100   0.0001250791   5.0289483e-05  2.7901366e-05  2.2388117e-05  0              505.35428      1010.7886     -0.080040042    0              53.250226      0              0              10.936642      10.948289      0.2            119.73753    
     17200   0.0001256017   5.0832131e-05  2.8144797e-05  2.2687335e-05  0              507.54555      1015.1393     -0.048177301    0              53.483798      0              0              10.936533      10.948237      0.2            119.73575    
     17300   0.00012565754  5.1377706e-05  2.8388224e-05  2.2989482e-05  0              509.72347      1019.4645     -0.017594691    0              53.716063      0              0              10.936423      10.948184      0.2            119.73398    
     17400   0.00012563897  5.1926356e-05  2.8632847e-05  2.3293509e-05  0              511.90608      1023.8002      0.011923406    0              53.966035      0              0              10.936314      10.948132      0.2            119.7322     
     17500   0.00012552468  5.2478187e-05  2.8879359e-05  2.3598828e-05  0              514.1032       1028.1621      0.044320834    0              54.208941      0              0              10.936204      10.948079      0.2            119.73043    
     17600   0.00012581715  5.3032946e-05  2.9127025e-05  2.390592e-05   0              516.30266      1032.5285      0.07678772     0              54.432236      0              0              10.936095      10.948026      0.2            119.72865    
     17700   0.0001258983   5.3590718e-05  2.9375676e-05  2.4215042e-05  0              518.50002      1036.8958      0.1042025      0              54.64513       0              0              10.935985      10.947973      0.2            119.72687    
     17800   0.00012553034  5.4151679e-05  2.9625981e-05  2.4525698e-05  0              520.70434      1041.2798      0.12887539     0              54.870845      0              0              10.935875      10.94792       0.2            119.72509    
     17900   0.00012611149  5.471571e-05   2.9877515e-05  2.4838194e-05  0              522.90795      1045.6648      0.15110246     0              55.096941      0              0              10.935766      10.947868      0.2            119.72332    
     18000   0.00012671805  5.5282234e-05  3.0129074e-05  2.515316e-05   0              525.0855       1049.9975      0.17350649     0              55.314526      0              0              10.935656      10.947815      0.2            119.72154    
     18100   0.00012667716  5.5851584e-05  3.0381428e-05  2.5470156e-05  0              527.26298      1054.3329      0.19307106     0              55.537455      0              0              10.935547      10.947762      0.2            119.71976    
     18200   0.00012680287  5.642418e-05   3.0635467e-05  2.5788713e-05  0              529.44492      1058.6812      0.20864575     0              55.774943      0              0              10.935437      10.947709      0.2            119.71799    
     18300   0.00012689254  5.6999693e-05  3.0890821e-05  2.6108872e-05  0              531.61786      1063.0169      0.21878702     0              56.017336      0              0              10.935328      10.947656      0.2            119.71621    
     18400   0.00012708784  5.7578093e-05  3.114778e-05   2.6430313e-05  0              533.80304      1067.3804      0.22567359     0              56.267226      0              0              10.935218      10.947604      0.2            119.71444    
     18500   0.00012724072  5.8159577e-05  3.1406098e-05  2.6753478e-05  0              535.99925      1071.7698      0.22868793     0              56.500943      0              0              10.935109      10.947551      0.2            119.71266    
     18600   0.00012740969  5.874392e-05   3.1665487e-05  2.7078433e-05  0              538.18399      1076.1367      0.23128947     0              56.718673      0              0              10.934999      10.947499      0.2            119.71089    
     18700   0.00012718008  5.9331385e-05  3.1926617e-05  2.7404768e-05  0              540.36681      1080.5088      0.22482478     0              56.948414      0              0              10.93489       10.947447      0.2            119.70912    
     18800   0.00012804397  5.9921701e-05  3.2189037e-05  2.7732664e-05  0              542.54834      1084.881       0.21565251     0              57.179759      0              0              10.93478       10.947395      0.2            119.70736    
     18900   0.0001280329   6.0514763e-05  3.2451295e-05  2.8063468e-05  0              544.70971      1089.2182      0.20120322     0              57.429179      0              0              10.93467       10.947343      0.2            119.70559    
     19000   0.00012827734  6.1110891e-05  3.2714895e-05  2.8395995e-05  0              546.87659      1093.5696      0.18357678     0              57.677848      0              0              10.934561      10.947291      0.2            119.70382    
     19100   0.00012842265  6.17098e-05    3.2978413e-05  2.8731387e-05  0              549.03671      1097.9094      0.16400537     0              57.910598      0              0              10.934451      10.94724       0.2            119.70206    
     19200   0.00012876539  6.2311591e-05  3.324227e-05   2.9069321e-05  0              551.18198      1102.2232      0.14072645     0              58.149402      0              0              10.934342      10.947188      0.2            119.70029    
     19300   0.00012916584  6.2916234e-05  3.3506459e-05  2.9409775e-05  0              553.31993      1106.525       0.11487187     0              58.404274      0              0              10.934232      10.947136      0.2            119.69853    
     19400   0.00012926666  6.3523827e-05  3.3772315e-05  2.9751511e-05  0              555.4667       1110.8459      0.087480558    0              58.660727      0              0              10.934123      10.947085      0.2            119.69677    
     19500   0.00012953531  6.4134255e-05  3.4039538e-05  3.0094717e-05  0              557.61581      1115.1746      0.057055994    0              58.915607      0              0              10.934013      10.947033      0.2            119.695      
     19600   0.00012961157  6.474761e-05   3.4307804e-05  3.0439806e-05  0              559.76986      1119.5126      0.027094171    0              59.171571      0              0              10.933904      10.946981      0.2            119.69323    
     19700   0.00012969297  6.5363957e-05  3.4576688e-05  3.0787269e-05  0              561.91338      1123.8302     -0.0034894596   0              59.414371      0              0              10.933794      10.946929      0.2            119.69147    
     19800   0.00012998424  6.5983369e-05  3.4847179e-05  3.113619e-05   0              564.06826      1128.1711     -0.034546694    0              59.662879      0              0              10.933684      10.946877      0.2            119.6897     
     19900   0.00013041037  6.6605426e-05  3.5118191e-05  3.1487236e-05  0              566.22357      1132.5128     -0.065626479    0              59.895332      0              0              10.933575      10.946825      0.2            119.68793    
     20000   0.00013042316  6.7230389e-05  3.5390034e-05  3.1840355e-05  0              568.39556      1136.886      -0.094906865    0              60.125386      0              0              10.933465      10.946773      0.2            119.68616    
     20100   0.00013075357  6.7858428e-05  3.5663298e-05  3.219513e-05   0              570.57726      1141.2787     -0.12413071     0              60.344545      0              0              10.933356      10.94672       0.2            119.68439    
     20200   0.00013088277  6.8489194e-05  3.593698e-05   3.2552214e-05  0              572.75766      1145.6673     -0.15196161     0              60.554247      0              0              10.933246      10.946667      0.2            119.68261    
     20300   0.0001312086   6.9123034e-05  3.6211852e-05  3.2911182e-05  0              574.93892      1150.0541     -0.17631608     0              60.764275      0              0              10.933137      10.946615      0.2            119.68083    
     20400   0.00013106629  6.975972e-05   3.6487499e-05  3.327222e-05   0              577.12448      1154.4457     -0.19669613     0              60.9845        0              0              10.933027      10.946562      0.2            119.67906    
     20500   0.00013169793  7.0399317e-05  3.6763596e-05  3.3635721e-05  0              579.30845      1158.8309     -0.21405414     0              61.199105      0              0              10.932918      10.946508      0.2            119.67727    
     20600   0.00013179276  7.1041751e-05  3.7040405e-05  3.4001346e-05  0              581.48642      1163.2006     -0.22774491     0              61.427986      0              0              10.932808      10.946455      0.2            119.67549    
     20700   0.00013190788  7.1687245e-05  3.7318507e-05  3.4368738e-05  0              583.66501      1167.571      -0.24097739     0              61.654191      0              0              10.932698      10.946402      0.2            119.67371    
     20800   0.00013235679  7.2335351e-05  3.7596095e-05  3.4739256e-05  0              585.82573      1171.8988     -0.24731831     0              61.868561      0              0              10.932589      10.946348      0.2            119.67193    
     20900   0.00013267081  7.2986203e-05  3.7873642e-05  3.5112561e-05  0              587.98158      1176.2135     -0.25038885     0              62.069005      0              0              10.932479      10.946295      0.2            119.67014    
     21000   0.00013277502  7.3639988e-05  3.8151768e-05  3.5488219e-05  0              590.13656      1180.5214     -0.24832631     0              62.271873      0              0              10.93237       10.946241      0.2            119.66836    
     21100   0.0001331754   7.42967e-05    3.8430339e-05  3.5866361e-05  0              592.28246      1184.8103     -0.24538649     0              62.466773      0              0              10.93226       10.946188      0.2            119.66658    
     21200   0.00013356814  7.4955936e-05  3.8708383e-05  3.6247553e-05  0              594.40501      1189.0445     -0.23445824     0              62.66354       0              0              10.932151      10.946135      0.2            119.66479    
     21300   0.00013388361  7.5618071e-05  3.8986655e-05  3.6631417e-05  0              596.5249       1193.2736     -0.22380518     0              62.864894      0              0              10.932041      10.946081      0.2            119.66301    
     21400   0.00013355367  7.6283263e-05  3.9265772e-05  3.7017492e-05  0              598.65143      1197.5091     -0.20627864     0              63.07742       0              0              10.931932      10.946027      0.2            119.66122    
     21500   0.00013373102  7.695155e-05   3.954622e-05   3.740533e-05   0              600.79166      1201.7682     -0.18488033     0              63.291219      0              0              10.931822      10.945974      0.2            119.65944    
     21600   0.00013404806  7.7622859e-05  3.9828391e-05  3.7794468e-05  0              602.93306      1206.0271     -0.16101468     0              63.504005      0              0              10.931713      10.94592       0.2            119.65765    
     21700   0.00013439342  7.8296906e-05  4.0111214e-05  3.8185692e-05  0              605.06817      1210.2727     -0.13637196     0              63.729939      0              0              10.931603      10.945867      0.2            119.65587    
     21800   0.00013442123  7.8973738e-05  4.0395574e-05  3.8578164e-05  0              607.20045      1214.511      -0.11007357     0              63.957522      0              0              10.931493      10.945813      0.2            119.65409    
     21900   0.00013503535  7.9653514e-05  4.0681151e-05  3.8972363e-05  0              609.3313       1218.7448     -0.082175402    0              64.203177      0              0              10.931384      10.94576       0.2            119.65231    
     22000   0.00013514343  8.0336049e-05  4.0967504e-05  3.9368544e-05  0              611.46331      1222.9769     -0.05023027     0              64.455648      0              0              10.931274      10.945707      0.2            119.65052    
     22100   0.00013500114  8.1021614e-05  4.125499e-05   3.9766623e-05  0              613.58713      1227.1938     -0.019523768    0              64.718188      0              0              10.931165      10.945654      0.2            119.64874    
     22200   0.0001351062   8.1710249e-05  4.1542873e-05  4.0167375e-05  0              615.70131      1231.3923      0.01031377     0              64.982731      0              0              10.931055      10.945601      0.2            119.64697    
     22300   0.00013558894  8.240167e-05   4.1831326e-05  4.0570344e-05  0              617.81985      1235.5954      0.04432238     0              65.256726      0              0              10.930946      10.945548      0.2            119.64519    
     22400   0.0001357471   8.3095932e-05  4.2120922e-05  4.097501e-05   0              619.94272      1239.8139      0.071514553    0              65.517581      0              0              10.930836      10.945495      0.2            119.64341    
     22500   0.00013603439  8.3793156e-05  4.2411888e-05  4.1381267e-05  0              622.06706      1244.036       0.098077827    0              65.764258      0              0              10.930727      10.945442      0.2            119.64163    
     22600   0.00013625967  8.4493048e-05  4.2702902e-05  4.1790146e-05  0              624.18624      1248.2482      0.12431875     0              66.009075      0              0              10.930617      10.945389      0.2            119.63985    
     22700   0.00013611908  8.519601e-05   4.2994967e-05  4.2201043e-05  0              626.30832      1252.4684      0.14821953     0              66.27589       0              0              10.930507      10.945336      0.2            119.63807    
     22800   0.00013597587  8.5902281e-05  4.32895e-05    4.2612781e-05  0              628.44812      1256.726       0.17022908     0              66.563377      0              0              10.930398      10.945283      0.2            119.6363     
     22900   0.0001360975   8.6611565e-05  4.3584631e-05  4.3026934e-05  0              630.57899      1260.9699      0.18811286     0              66.857332      0              0              10.930288      10.94523       0.2            119.63452    
     23000   0.00013619727  8.7323827e-05  4.3880691e-05  4.3443136e-05  0              632.70846      1265.2141      0.20277844     0              67.135711      0              0              10.930179      10.945177      0.2            119.63274    
     23100   0.00013625778  8.8039091e-05  4.4177601e-05  4.386149e-05   0              634.83517      1269.4564      0.21395766     0              67.386531      0              0              10.930069      10.945124      0.2            119.63097    
     23200   0.00013641798  8.875736e-05   4.4475861e-05  4.4281499e-05  0              636.97309      1273.7249      0.2212666      0              67.60376       0              0              10.92996       10.945072      0.2            119.62919    
     23300   0.00013670817  8.9478473e-05  4.4775732e-05  4.4702741e-05  0              639.11753      1278.0117      0.22331049     0              67.801124      0              0              10.92985       10.945019      0.2            119.62742    
     23400   0.00013675894  9.0202572e-05  4.5077206e-05  4.5125366e-05  0              641.25757      1282.293       0.22217508     0              67.97912       0              0              10.929741      10.944966      0.2            119.62564    
     23500   0.00013707307  9.0929407e-05  4.5378957e-05  4.555045e-05   0              643.38471      1286.5516      0.21785205     0              68.149891      0              0              10.929631      10.944913      0.2            119.62386    
     23600   0.00013728211  9.165916e-05   4.5681317e-05  4.5977842e-05  0              645.50167      1290.7925      0.21085835     0              68.307803      0              0              10.929521      10.94486       0.2            119.62208    
     23700   0.00013743192  9.23918e-05    4.5983936e-05  4.6407864e-05  0              647.60482      1295.0105      0.19913755     0              68.475016      0              0              10.929412      10.944806      0.2            119.6203     
     23800   0.00013754729  9.3127272e-05  4.6287711e-05  4.6839562e-05  0              649.70317      1299.2221      0.18419808     0              68.623116      0              0              10.929302      10.944753      0.2            119.61852    
     23900   0.00013794114  9.3865598e-05  4.6592332e-05  4.7273266e-05  0              651.79378      1303.4229      0.16464674     0              68.767844      0              0              10.929193      10.944701      0.2            119.61674    
     24000   0.00013827552  9.4606771e-05  4.6897439e-05  4.7709332e-05  0              653.86946      1307.5936      0.14532638     0              68.929123      0              0              10.929083      10.944648      0.2            119.61496    
     24100   0.00013857487  9.5350641e-05  4.7202647e-05  4.8147994e-05  0              655.92784      1311.7342      0.12145255     0              69.077727      0              0              10.928974      10.944594      0.2            119.61318    
     24200   0.00013831645  9.6097649e-05  4.7509415e-05  4.8588234e-05  0              657.98495      1315.8725      0.097375537    0              69.23988       0              0              10.928864      10.944541      0.2            119.6114     
     24300   0.00013825697  9.6847896e-05  4.7817806e-05  4.903009e-05   0              660.04041      1320.0117      0.069149588    0              69.425436      0              0              10.928755      10.944488      0.2            119.60962    
     24400   0.00013832902  9.7601128e-05  4.8127415e-05  4.9473713e-05  0              662.10256      1324.1657      0.039376337    0              69.62377       0              0              10.928645      10.944435      0.2            119.60784    
     24500   0.00013844398  9.8357418e-05  4.8438082e-05  4.9919336e-05  0              664.17484      1328.342       0.0076741929   0              69.847218      0              0              10.928535      10.944382      0.2            119.60606    
     24600   0.00013857665  9.9116691e-05  4.8749863e-05  5.0366828e-05  0              666.25749      1332.538      -0.023009175    0              70.092148      0              0              10.928426      10.944329      0.2            119.60428    
     24700   0.00013864766  9.9878841e-05  4.9062558e-05  5.0816283e-05  0              668.34111      1336.7365     -0.054275382    0              70.342234      0              0              10.928316      10.944276      0.2            119.60251    
     24800   0.00013874922  0.00010064391  4.9376281e-05  5.126763e-05   0              670.4305       1340.9456     -0.084627369    0              70.592019      0              0              10.928207      10.944223      0.2            119.60073    
     24900   0.00013874759  0.00010141193  4.9691725e-05  5.17202e-05    0              672.52894      1345.1711     -0.11325524     0              70.870355      0              0              10.928097      10.94417       0.2            119.59895    
     25000   0.00013901243  0.00010218301  5.0008825e-05  5.2174182e-05  0              674.63153      1349.4038     -0.14068547     0              71.161181      0              0              10.927988      10.944117      0.2            119.59718    
     25100   0.00013911558  0.00010295683  5.0326462e-05  5.2630364e-05  0              676.73137      1353.6303     -0.16755869     0              71.447556      0              0              10.927878      10.944065      0.2            119.5954     
     25200   0.00013923455  0.00010373364  5.064514e-05   5.3088497e-05  0              678.83445      1357.8604     -0.19145319     0              71.728532      0              0              10.927769      10.944012      0.2            119.59363    
     25300   0.00013936763  0.00010451353  5.0965127e-05  5.3548399e-05  0              680.94467      1362.0988     -0.20943193     0              72.007335      0              0              10.927659      10.943959      0.2            119.59185    
     25400   0.00013946624  0.00010529642  5.1285669e-05  5.4010749e-05  0              683.06365      1366.3503     -0.22303079     0              72.265255      0              0              10.92755       10.943906      0.2            119.59007    
     25500   0.00013968045  0.00010608207  5.1606176e-05  5.4475892e-05  0              685.17993      1370.5929     -0.23303748     0              72.503931      0              0              10.92744       10.943853      0.2            119.58829    
     25600   0.00013931167  0.00010687084  5.192764e-05   5.4943202e-05  0              687.30853      1374.8577     -0.24068527     0              72.747508      0              0              10.92733       10.9438        0.2            119.58651    
     25700   0.00013925004  0.00010766287  5.2250623e-05  5.5412248e-05  0              689.44632      1379.1364     -0.24373667     0              73.005231      0              0              10.927221      10.943746      0.2            119.58473    
     25800   0.00013963203  0.00010845789  5.25744e-05    5.5883491e-05  0              691.5734       1383.3932     -0.24636883     0              73.252626      0              0              10.927111      10.943693      0.2            119.58295    
     25900   0.00013954269  0.00010925583  5.2898776e-05  5.6357056e-05  0              693.69498      1387.6305     -0.24051713     0              73.488221      0              0              10.927002      10.94364       0.2            119.58117    
     26000   0.00013941927  0.00011005679  5.3224029e-05  5.6832757e-05  0              695.81449      1391.8594     -0.23046697     0              73.712837      0              0              10.926892      10.943587      0.2            119.57939    
     26100   0.00013949189  0.00011086082  5.3549809e-05  5.731101e-05   0              697.93452      1396.086      -0.21694003     0              73.959592      0              0              10.926783      10.943533      0.2            119.57761    
     26200   0.00013941732  0.00011166795  5.3876823e-05  5.7791127e-05  0              700.06207      1400.3257     -0.20156838     0              74.2139        0              0              10.926673      10.94348       0.2            119.57583    
     26300   0.00014007586  0.00011247783  5.420438e-05   5.8273455e-05  0              702.1839       1404.5519     -0.18411938     0              74.439918      0              0              10.926564      10.943426      0.2            119.57405    
     26400   0.00013985099  0.00011329058  5.4532794e-05  5.8757786e-05  0              704.30445      1408.7719     -0.16298656     0              74.648423      0              0              10.926454      10.943373      0.2            119.57226    
     26500   0.00013962507  0.00011410659  5.4862747e-05  5.9243848e-05  0              706.44645      1413.0299     -0.13702903     0              74.849454      0              0              10.926344      10.94332       0.2            119.57048    
     26600   0.00013955969  0.00011492582  5.5193804e-05  5.9732018e-05  0              708.60572      1417.3214     -0.109982       0              75.056259      0              0              10.926235      10.943266      0.2            119.5687     
     26700   0.00013974657  0.00011574806  5.5525829e-05  6.0222232e-05  0              710.76065      1421.6041     -0.082828392    0              75.253134      0              0              10.926125      10.943213      0.2            119.56692    
     26800   0.00013976016  0.0001165732   5.5859159e-05  6.0714041e-05  0              712.91416      1425.8794     -0.051032767    0              75.437964      0              0              10.926016      10.94316       0.2            119.56514    
     26900   0.0001399511   0.00011740111  5.6193239e-05  6.1207876e-05  0              715.06078      1430.1425     -0.020909148    0              75.626432      0              0              10.925906      10.943107      0.2            119.56336    
     27000   0.00014011503  0.00011823205  5.6528465e-05  6.1703583e-05  0              717.19948      1434.3894      0.009518394    0              75.825491      0              0              10.925797      10.943053      0.2            119.56158    
     27100   0.00014022046  0.0001190659   5.6864595e-05  6.2201308e-05  0              719.33265      1438.6235      0.041776666    0              76.038674      0              0              10.925687      10.943         0.2            119.5598     
     27200   0.0001405177   0.00011990262  5.7201967e-05  6.2700654e-05  0              721.46852      1442.8646      0.072474542    0              76.246997      0              0              10.925578      10.942947      0.2            119.55802    
     27300   0.00014082222  0.00012074207  5.754037e-05   6.3201698e-05  0              723.59811      1447.094       0.10217761     0              76.462541      0              0              10.925468      10.942894      0.2            119.55624    
     27400   0.00014103512  0.00012158444  5.7880293e-05  6.3704144e-05  0              725.72142      1451.3143      0.12856569     0              76.689584      0              0              10.925358      10.942841      0.2            119.55446    
     27500   0.00014116218  0.00012242972  5.8221265e-05  6.4208454e-05  0              727.82977      1455.5086      0.15090717     0              76.924522      0              0              10.925249      10.942788      0.2            119.55268    
     27600   0.00014117498  0.00012327787  5.8562728e-05  6.4715141e-05  0              729.92705      1459.6842      0.16992186     0              77.143679      0              0              10.925139      10.942735      0.2            119.5509     
     27700   0.00014141099  0.00012412901  5.8905142e-05  6.5223864e-05  0              732.01312      1463.8371      0.18915351     0              77.359603      0              0              10.92503       10.942681      0.2            119.54912    
     27800   0.00014148081  0.00012498307  5.9248541e-05  6.5734532e-05  0              734.09665      1467.9891      0.20418223     0              77.59469       0              0              10.92492       10.942628      0.2            119.54734    
     27900   0.00014162467  0.00012583995  5.9592994e-05  6.6246952e-05  0              736.18507      1472.1531      0.2170327      0              77.827186      0              0              10.924811      10.942575      0.2            119.54556    
     28000   0.00014222325  0.00012669958  5.9937871e-05  6.676171e-05   0              738.26575      1476.3085      0.22297516     0              78.045857      0              0              10.924701      10.942522      0.2            119.54379    
     28100   0.00014235508  0.0001275621   6.0283666e-05  6.7278435e-05  0              740.34161      1480.4578      0.22542445     0              78.264348      0              0              10.924592      10.942469      0.2            119.54201    
     28200   0.0001423289   0.00012842759  6.0630349e-05  6.7797244e-05  0              742.41595      1484.6085      0.22335557     0              78.488781      0              0              10.924482      10.942416      0.2            119.54023    
     28300   0.0001423744   0.00012929591  6.0977473e-05  6.8318439e-05  0              744.49339      1488.7681      0.21869804     0              78.72209       0              0              10.924373      10.942364      0.2            119.53846    
     28400   0.00014239874  0.00013016739  6.1326453e-05  6.8840942e-05  0              746.5805       1492.9504      0.21058477     0              78.953386      0              0              10.924263      10.942311      0.2            119.53668    
     28500   0.0001424099   0.00013104198  6.1676922e-05  6.9365054e-05  0              748.67518      1497.1531      0.19728193     0              79.157523      0              0              10.924153      10.942258      0.2            119.53491    
     28600   0.00014253665  0.00013191946  6.2028135e-05  6.989133e-05   0              750.76623      1501.3512      0.18122709     0              79.33627       0              0              10.924044      10.942206      0.2            119.53313    
[...]
    292900   0.00023664265  0.011935906    0.0035850155   0.0083508908   0              5683.0607      11366.85      -0.72879544     0              673.36262      0              0              10.634498      10.79445       0.2            114.79355    
    293000   0.00023725278  0.011943868    0.0035871788   0.0083566892   0              5684.7073      11370.314     -0.89929548     0              673.5742       0              0              10.634388      10.794391      0.2            114.79174    
    293100   0.00023735597  0.011951832    0.0035893461   0.0083624859   0              5686.3697      11373.793     -1.0532357      0              673.80431      0              0              10.634278      10.794332      0.2            114.78993    
    293200   0.00023750379  0.011959798    0.0035915144   0.0083682838   0              5688.0491      11377.284     -1.1852921      0              674.01319      0              0              10.634169      10.794272      0.2            114.78812    
    293300   0.00023748452  0.011967767    0.0035936926   0.0083740746   0              5689.7597      11380.816     -1.2970592      0              674.21118      0              0              10.634059      10.794213      0.2            114.7863     
    293400   0.00023779604  0.011975739    0.0035958766   0.0083798621   0              5691.5007      11384.382     -1.3807322      0              674.40028      0              0              10.63395       10.794154      0.2            114.78449    
    293500   0.00023796438  0.011983713    0.0035980632   0.0083856494   0              5693.2602      11387.958     -1.4376675      0              674.57968      0              0              10.63384       10.794094      0.2            114.78267    
    293600   0.00023827336  0.011991688    0.0036002537   0.0083914347   0              5695.042       11391.545     -1.4613898      0              674.75203      0              0              10.633731      10.794034      0.2            114.78086    
    293700   0.00023796131  0.011999667    0.003602447    0.0083972199   0              5696.8465      11395.153     -1.4602302      0              674.92145      0              0              10.633621      10.793974      0.2            114.77903    
    293800   0.00023738865  0.012007648    0.0036046477   0.0084030007   0              5698.6831      11398.797     -1.4313124      0              675.11678      0              0              10.633512      10.793914      0.2            114.77721    
    293900   0.0002372908   0.012015633    0.0036068603   0.0084087726   0              5700.5584      11402.488     -1.3710238      0              675.31579      0              0              10.633402      10.793854      0.2            114.77539    
    294000   0.00023745156  0.01202362     0.0036090754   0.0084145443   0              5702.4542      11406.19      -1.2815737      0              675.5176       0              0              10.633292      10.793794      0.2            114.77357    
    294100   0.00023758818  0.012031609    0.0036112904   0.0084203184   0              5704.353       11409.875     -1.1691901      0              675.70594      0              0              10.633183      10.793733      0.2            114.77174    
    294200   0.00023725426  0.012039601    0.0036135095   0.0084260911   0              5706.2673      11413.567     -1.0324366      0              675.88137      0              0              10.633073      10.793672      0.2            114.76991    
    294300   0.00023708881  0.012047595    0.003615737    0.0084318584   0              5708.1932      11417.262     -0.87546036     0              676.04955      0              0              10.632964      10.793612      0.2            114.76809    
    294400   0.00023700776  0.012055593    0.0036179713   0.0084376218   0              5710.1316      11420.966     -0.70308139     0              676.22277      0              0              10.632854      10.793551      0.2            114.76626    
    294500   0.0002371964   0.012063593    0.0036202069   0.008443386    0              5712.0771      11424.671     -0.51669527     0              676.39774      0              0              10.632745      10.793491      0.2            114.76443    
    294600   0.0002372198   0.012071595    0.0036224328   0.0084491625   0              5714.016       11428.355     -0.32256959     0              676.57728      0              0              10.632635      10.79343       0.2            114.76261    
    294700   0.00023777091  0.0120796      0.0036246458   0.0084549541   0              5715.9497      11432.021     -0.12131274     0              676.77005      0              0              10.632526      10.79337       0.2            114.76078    
    294800   0.00023799634  0.012087607    0.0036268482   0.0084607586   0              5717.8636      11435.647      0.080329565    0              676.98781      0              0              10.632416      10.793309      0.2            114.75895    
    294900   0.00023777177  0.012095616    0.0036290444   0.0084665718   0              5719.768       11439.259      0.27704676     0              677.20803      0              0              10.632307      10.793248      0.2            114.75712    
    295000   0.00023782966  0.012103628    0.0036312463   0.0084723821   0              5721.6667      11442.864      0.46981432     0              677.44218      0              0              10.632197      10.793187      0.2            114.75529    
    295100   0.00023816954  0.012111643    0.0036334408   0.0084782024   0              5723.5422      11446.438      0.64601619     0              677.69224      0              0              10.632087      10.793127      0.2            114.75347    
    295200   0.00023769264  0.012119661    0.003635638    0.0084840228   0              5725.4201      11450.031      0.80904054     0              677.98682      0              0              10.631978      10.793066      0.2            114.75164    
    295300   0.00023770552  0.012127681    0.003637833    0.008489848    0              5727.2894      11453.629      0.95019036     0              678.28425      0              0              10.631868      10.793005      0.2            114.74981    
    295400   0.00023806603  0.012135704    0.0036400315   0.0084956721   0              5729.1432      11457.217      1.0697857      0              678.57934      0              0              10.631759      10.792945      0.2            114.74798    
    295500   0.00023792651  0.012143728    0.003642231    0.0085014974   0              5730.9906      11460.815      1.1660256      0              678.86725      0              0              10.631649      10.792884      0.2            114.74616    
    295600   0.000237816    0.012151756    0.0036444368   0.0085073194   0              5732.8509      11464.468      1.2335549      0              679.15491      0              0              10.63154       10.792824      0.2            114.74434    
    295700   0.00023772887  0.012159786    0.0036466413   0.0085131452   0              5734.6938      11468.116      1.2716697      0              679.44118      0              0              10.63143       10.792764      0.2            114.74251    
    295800   0.00023816263  0.012167819    0.0036488491   0.0085189701   0              5736.5116      11471.739      1.2840246      0              679.70143      0              0              10.631321      10.792704      0.2            114.74069    
    295900   0.00023819044  0.012175854    0.003651053    0.008524801    0              5738.2906      11475.315      1.266369       0              679.95613      0              0              10.631211      10.792644      0.2            114.73887    
    296000   0.00023889139  0.012183891    0.0036532457   0.0085306457   0              5740.0411      11478.865      1.217071       0              680.23279      0              0              10.631101      10.792584      0.2            114.73705    
    296100   0.00023868303  0.012191931    0.0036554329   0.0085364981   0              5741.7719      11482.4        1.1434281      0              680.50633      0              0              10.630992      10.792524      0.2            114.73523    
    296200   0.00023825514  0.012199973    0.0036576242   0.0085423491   0              5743.4786      11485.914      1.043277       0              680.75785      0              0              10.630882      10.792464      0.2            114.73342    
    296300   0.00023838817  0.012208019    0.0036598183   0.0085482005   0              5745.1676      11489.421      0.91384502     0              680.98832      0              0              10.630773      10.792405      0.2            114.7316     
    296400   0.00023877273  0.012216066    0.0036620076   0.0085540587   0              5746.833       11492.899      0.76738266     0              681.21377      0              0              10.630663      10.792345      0.2            114.72979    
    296500   0.00023866237  0.012224116    0.0036642064   0.0085599101   0              5748.488       11496.375      0.60095168     0              681.41799      0              0              10.630554      10.792286      0.2            114.72798    
    296600   0.00023916547  0.012232169    0.0036664195   0.0085657493   0              5750.146       11499.875      0.41739769     0              681.59496      0              0              10.630444      10.792227      0.2            114.72617    
    296700   0.00023915484  0.012240224    0.0036686382   0.0085715854   0              5751.7918      11503.356      0.22716514     0              681.75812      0              0              10.630335      10.792169      0.2            114.72436    
    296800   0.00023881106  0.012248281    0.0036708721   0.008577409    0              5753.4423      11506.858      0.026466459    0              681.91842      0              0              10.630225      10.79211       0.2            114.72256    
    296900   0.00023875575  0.012256341    0.0036731093   0.008583232    0              5755.0957      11510.366     -0.17478716     0              682.07537      0              0              10.630115      10.792052      0.2            114.72076    
    297000   0.00023875787  0.012264404    0.0036753379   0.0085890661   0              5756.7427      11513.859     -0.37410788     0              682.24853      0              0              10.630006      10.791993      0.2            114.71895    
    297100   0.0002385102   0.012272469    0.0036775711   0.0085948983   0              5758.3922      11517.353     -0.56839232     0              682.45568      0              0              10.629896      10.791935      0.2            114.71715    
    297200   0.00023835908  0.012280537    0.0036798046   0.0086007326   0              5760.0534      11520.859     -0.75191699     0              682.67759      0              0              10.629787      10.791876      0.2            114.71534    
    297300   0.00023812944  0.012288608    0.0036820458   0.0086065623   0              5761.7338      11524.389     -0.92137293     0              682.87893      0              0              10.629677      10.791817      0.2            114.71354    
    297400   0.00023813653  0.012296682    0.0036842867   0.0086123948   0              5763.4333      11527.94      -1.0731545      0              683.09296      0              0              10.629568      10.791759      0.2            114.71173    
    297500   0.00023832475  0.012304757    0.0036865237   0.0086182337   0              5765.1384      11531.481     -1.2041903      0              683.30107      0              0              10.629458      10.791699      0.2            114.70992    
    297600   0.00023917861  0.012312836    0.0036887529   0.0086240828   0              5766.8452      11535.002     -1.3110208      0              683.50839      0              0              10.629349      10.79164       0.2            114.7081     
    297700   0.00023873296  0.012320916    0.0036909768   0.0086299396   0              5768.5548      11538.503     -1.3938796      0              683.73501      0              0              10.629239      10.79158       0.2            114.70629    
    297800   0.00023834707  0.012329       0.0036932028   0.0086357971   0              5770.2969      11542.04      -1.446461       0              683.95817      0              0              10.62913       10.79152       0.2            114.70447    
    297900   0.00023800903  0.012337086    0.0036954331   0.0086416532   0              5772.0816      11545.635     -1.4721055      0              684.1738       0              0              10.62902       10.79146       0.2            114.70265    
    298000   0.00023820716  0.012345175    0.0036976679   0.0086475073   0              5773.8966      11549.259     -1.4660334      0              684.3784       0              0              10.62891       10.7914        0.2            114.70083    
    298100   0.00023811005  0.012353266    0.0036999079   0.0086533586   0              5775.7347      11552.903     -1.4334118      0              684.58138      0              0              10.628801      10.79134       0.2            114.69901    
    298200   0.00023828048  0.012361361    0.0037021503   0.0086592103   0              5777.586       11556.543     -1.3714906      0              684.77535      0              0              10.628691      10.79128       0.2            114.69719    
    298300   0.00023809985  0.012369457    0.0037043823   0.008665075    0              5779.4361      11560.154     -1.2817958      0              684.97         0              0              10.628582      10.79122       0.2            114.69536    
    298400   0.00023820388  0.012377556    0.0037066063   0.0086709501   0              5781.2774      11563.723     -1.1681087      0              685.15796      0              0              10.628472      10.791159      0.2            114.69353    
    298500   0.00023853201  0.012385658    0.0037088332   0.0086768245   0              5783.1406      11567.311     -1.0303428      0              685.34025      0              0              10.628363      10.791098      0.2            114.6917     
    298600   0.00023888873  0.012393762    0.0037110539   0.0086827077   0              5785.0171      11570.904     -0.87003512     0              685.54428      0              0              10.628253      10.791037      0.2            114.68987    
    298700   0.00023892797  0.012401868    0.0037132674   0.0086886005   0              5786.8962      11574.486     -0.69370922     0              685.77642      0              0              10.628144      10.790975      0.2            114.68803    
    298800   0.00023848948  0.012409977    0.0037154771   0.0086944999   0              5788.7728      11578.049     -0.50304803     0              686.01131      0              0              10.628034      10.790914      0.2            114.6862     
    298900   0.00023865521  0.012418089    0.0037176886   0.0087004001   0              5790.6519      11581.61      -0.30585697     0              686.25928      0              0              10.627924      10.790852      0.2            114.68436    
    299000   0.00023864983  0.012426203    0.0037198974   0.0087063053   0              5792.5407      11585.183     -0.10210988     0              686.50852      0              0              10.627815      10.790791      0.2            114.68253    
    299100   0.00023894445  0.012434319    0.0037221139   0.0087122055   0              5794.4416      11588.782      0.10162084     0              686.74014      0              0              10.627705      10.790729      0.2            114.68069    
    299200   0.00023877414  0.012442439    0.003724345    0.0087180936   0              5796.3612      11592.42       0.30228334     0              686.96137      0              0              10.627596      10.790668      0.2            114.67886    
    299300   0.00023915265  0.01245056     0.0037265753   0.0087239849   0              5798.2753      11596.053      0.4977611      0              687.18499      0              0              10.627486      10.790607      0.2            114.67702    
    299400   0.00023892223  0.012458684    0.0037287979   0.0087298863   0              5800.177       11599.681      0.67324335     0              687.42576      0              0              10.627377      10.790546      0.2            114.67519    
    299500   0.00023891929  0.012466811    0.0037310246   0.0087357865   0              5802.0756      11603.317      0.83439846     0              687.66939      0              0              10.627267      10.790485      0.2            114.67336    
    299600   0.00023909309  0.01247494     0.0037332411   0.0087416986   0              5803.963       11606.949      0.97681486     0              687.94098      0              0              10.627158      10.790424      0.2            114.67154    
    299700   0.00023915523  0.012483072    0.003735455    0.0087476165   0              5805.8238      11610.552      1.0956014      0              688.20231      0              0              10.627048      10.790363      0.2            114.66971    
    299800   0.00023900761  0.012491206    0.0037376752   0.0087535306   0              5807.662       11614.135      1.1891814      0              688.47096      0              0              10.626938      10.790303      0.2            114.66788    
    299900   0.00023877316  0.012499343    0.0037398964   0.0087594464   0              5809.4936      11617.728      1.2594038      0              688.74525      0              0              10.626829      10.790243      0.2            114.66606    
    300000   0.00023887993  0.012507482    0.0037421112   0.0087653712   0              5811.2961      11621.293      1.2994081      0              689.0279       0              0              10.626719      10.790183      0.2            114.66424    
    300100   0.00023882307  0.012515624    0.0037443217   0.0087713028   0              5813.0734      11624.841      1.3062356      0              689.29595      0              0              10.62661       10.790123      0.2            114.66242    
    300148   0.00023912901  0.01251954     0.0037453948   0.0087741454   0              5813.8685      11626.518      1.2190872      0              689.42418      0              0              10.626557      10.790095      0.2            114.66156    
Loop time of 9.24823 on 1 procs for 300000 steps with 100 atoms

Performance: 28026.992 ns/day, 0.001 hours/ns, 32438.648 timesteps/s, 3.244 Matom-step/s
99.7% CPU use with 1 MPI tasks x 1 OpenMP threads

MPI task timing breakdown:
Section |  min time  |  avg time  |  max time  |%varavg| %total
---------------------------------------------------------------
Pair    | 0          | 0          | 0          |   0.0 |  0.00
Bond    | 5.456      | 5.456      | 5.456      |   0.0 | 58.99
Neigh   | 0          | 0          | 0          |   0.0 |  0.00
Comm    | 1.0502     | 1.0502     | 1.0502     |   0.0 | 11.36
Output  | 0.062183   | 0.062183   | 0.062183   |   0.0 |  0.67
Modify  | 2.5447     | 2.5447     | 2.5447     |   0.0 | 27.52
Other   |            | 0.1352     |            |       |  1.46

Nlocal:            100 ave         100 max         100 min
Histogram: 1 0 0 0 0 0 0 0 0 0
Nghost:            704 ave         704 max         704 min
Histogram: 1 0 0 0 0 0 0 0 0 0
Neighs:              0 ave           0 max           0 min
Histogram: 1 0 0 0 0 0 0 0 0 0

Total # of neighbors = 0
Ave neighs/atom = 0
Ave special neighs/atom = 18.52
Neighbor list builds = 0
Dangerous builds = 0
Total wall time: 0:00:09
