LAMMPS data file.

    499 atoms
    915 bonds
   3221 angles
      0 dihedrals
      0 impropers
      1 atom types
    915 bond types
   3221 angle types
      0 dihedral types
      0 improper types
   0.000000  21.972449 xlo xhi
   0.000000  21.972449 ylo yhi
   0.000000   1.000000 zlo zhi
0.0 0.0 0.0 xy xz yz

Masses # ['atom_id', 'mass']

1 1000000.0

Atoms # ['atomID', 'moleculeID', 'atomType', 'charge', 'x', 'y', 'z']

      1      1      1   0.000000   7.813008  21.902691   0.000000
      2      1      1   0.000000  15.666665  21.032522   0.000000
      3      1      1   0.000000  21.439749   4.267091   0.000000
      4      1      1   0.000000   7.544252  21.044924   0.000000
      5      1      1   0.000000   3.068814   6.491157   0.000000
      6      1      1   0.000000   1.708583   8.568978   0.000000
      7      1      1   0.000000   3.383982   8.112412   0.000000
      8      1      1   0.000000   8.127788  15.087976   0.000000
      9      1      1   0.000000   8.020483  20.356731   0.000000
     10      1      1   0.000000  12.532696  18.551276   0.000000
     11      1      1   0.000000   8.237495   6.824868   0.000000
     12      1      1   0.000000  14.845376  12.631284   0.000000
     13      1      1   0.000000   4.990883   9.698082   0.000000
     14      1      1   0.000000  19.815331   5.153311   0.000000
     15      1      1   0.000000   0.844974  11.918825   0.000000
     16      1      1   0.000000  14.159109  19.104122   0.000000
     17      1      1   0.000000   8.973443   9.873601   0.000000
     18      1      1   0.000000  11.895326   9.799978   0.000000
     19      1      1   0.000000   3.481886  20.616225   0.000000
     20      1      1   0.000000   5.416610  16.665232   0.000000
     21      1      1   0.000000  16.554759  16.592192   0.000000
     22      1      1   0.000000   0.033335  18.107375   0.000000
     23      1      1   0.000000   7.361292   1.449952   0.000000
     24      1      1   0.000000  15.448467  12.040391   0.000000
     25      1      1   0.000000  19.328231  18.093370   0.000000
     26      1      1   0.000000  20.158320  18.272493   0.000000
     27      1      1   0.000000   1.811352  18.599617   0.000000
     28      1      1   0.000000   1.432582   5.729036   0.000000
     29      1      1   0.000000   4.255873   0.991178   0.000000
     30      1      1   0.000000  18.837614  13.955673   0.000000
     31      1      1   0.000000   2.516487  12.308776   0.000000
     32      1      1   0.000000   9.980662  15.425097   0.000000
     33      1      1   0.000000  20.370936   9.455505   0.000000
     34      1      1   0.000000  10.997503   3.969697   0.000000
     35      1      1   0.000000  14.434962   6.769833   0.000000
     36      1      1   0.000000   8.780049   3.474654   0.000000
     37      1      1   0.000000  13.972193  18.274972   0.000000
     38      1      1   0.000000  18.607691   9.973742   0.000000
     39      1      1   0.000000   1.195950   1.158350   0.000000
     40      1      1   0.000000  14.946633  13.555717   0.000000
     41      1      1   0.000000  21.955722  15.297498   0.000000
     42      1      1   0.000000   5.667258  10.214248   0.000000
     43      1      1   0.000000  17.041291   5.343489   0.000000
     44      1      1   0.000000   1.562808   1.936195   0.000000
     45      1      1   0.000000   9.480308  10.559955   0.000000
     46      1      1   0.000000  19.316871   1.895470   0.000000
     47      1      1   0.000000   6.077728  19.923122   0.000000
     48      1      1   0.000000   6.531164   1.659472   0.000000
     49      1      1   0.000000   3.215650  11.809724   0.000000
     50      1      1   0.000000   0.532301   1.708489   0.000000
     51      1      1   0.000000  14.983345  20.526497   0.000000
     52      1      1   0.000000   5.197939  20.083212   0.000000
     53      1      1   0.000000   6.654804   6.421846   0.000000
     54      1      1   0.000000  11.864490  13.479177   0.000000
     55      1      1   0.000000   1.673593  12.132906   0.000000
     56      1      1   0.000000  11.654671  14.322644   0.000000
     57      1      1   0.000000   4.079394  21.231527   0.000000
     58      1      1   0.000000  13.564127   6.683739   0.000000
     59      1      1   0.000000  15.086821   4.870731   0.000000
     60      1      1   0.000000   2.424246  11.451064   0.000000
     61      1      1   0.000000   9.636445  19.355356   0.000000
     62      1      1   0.000000  15.372992  11.182760   0.000000
     63      1      1   0.000000   9.299877  12.551610   0.000000
     64      1      1   0.000000   1.332989  16.689569   0.000000
     65      1      1   0.000000  11.277677   0.460861   0.000000
     66      1      1   0.000000  14.287218   3.168147   0.000000
     67      1      1   0.000000  10.463036  16.986294   0.000000
     68      1      1   0.000000  20.730119   1.260490   0.000000
     69      1      1   0.000000  13.333252  18.861868   0.000000
     70      1      1   0.000000  19.438932  10.224325   0.000000
     71      1      1   0.000000   2.976930   8.966952   0.000000
     72      1      1   0.000000   3.283603  19.776779   0.000000
     73      1      1   0.000000  17.920709   8.083400   0.000000
     74      1      1   0.000000   8.178728  12.383269   0.000000
     75      1      1   0.000000   4.199993  14.580206   0.000000
     76      1      1   0.000000  19.971975   7.661413   0.000000
     77      1      1   0.000000   7.634162  13.077785   0.000000
     78      1      1   0.000000  16.280491  14.712713   0.000000
     79      1      1   0.000000  16.121551   2.484238   0.000000
     80      1      1   0.000000  19.159565  14.765763   0.000000
     81      1      1   0.000000  13.518654  13.860352   0.000000
     82      1      1   0.000000  16.940550   7.887480   0.000000
     83      1      1   0.000000   7.327632  16.771653   0.000000
     84      1      1   0.000000   6.026525   9.417076   0.000000
     85      1      1   0.000000  18.872150  15.605032   0.000000
     86      1      1   0.000000   8.756923  19.300096   0.000000
     87      1      1   0.000000  21.059322  21.639769   0.000000
     88      1      1   0.000000  14.126646  10.810403   0.000000
     89      1      1   0.000000  13.835420   1.622257   0.000000
     90      1      1   0.000000   3.085421  17.135713   0.000000
     91      1      1   0.000000  20.192149   1.963419   0.000000
     92      1      1   0.000000  10.509443   6.488476   0.000000
     93      1      1   0.000000  12.456250  20.407957   0.000000
     94      1      1   0.000000   9.229985   9.043256   0.000000
     95      1      1   0.000000   5.451282  17.535046   0.000000
     96      1      1   0.000000  19.763417  15.561653   0.000000
     97      1      1   0.000000  11.955195   7.686141   0.000000
     98      1      1   0.000000   0.354365  16.585003   0.000000
     99      1      1   0.000000  14.608862   3.994908   0.000000
    100      1      1   0.000000   6.746436  13.001381   0.000000
    101      1      1   0.000000  11.423156  21.557942   0.000000
    102      1      1   0.000000  17.979301  15.655117   0.000000
    103      1      1   0.000000   7.523364  10.667763   0.000000
    104      1      1   0.000000  20.660367  15.508651   0.000000
    105      1      1   0.000000  13.644106   9.176686   0.000000
    106      1      1   0.000000   0.657276   5.319820   0.000000
    107      1      1   0.000000  19.807278  17.359922   0.000000
    108      1      1   0.000000  15.633833  13.004037   0.000000
    109      1      1   0.000000   0.045404   2.447723   0.000000
    110      1      1   0.000000   3.068641   9.854566   0.000000
    111      1      1   0.000000   2.857552  16.190262   0.000000
    112      1      1   0.000000  20.682088   5.265730   0.000000
    113      1      1   0.000000  16.308096   8.523426   0.000000
    114      1      1   0.000000   1.347727   4.734820   0.000000
    115      1      1   0.000000  16.320723  11.448668   0.000000
    116      1      1   0.000000  16.047323   4.969289   0.000000
    117      1      1   0.000000  19.799891   1.152142   0.000000
    118      1      1   0.000000  16.268865  12.356438   0.000000
    119      1      1   0.000000   3.407905   3.643043   0.000000
    120      1      1   0.000000   0.709382   8.326313   0.000000
    121      1      1   0.000000   1.853868   2.774174   0.000000
    122      1      1   0.000000   5.669438   1.878175   0.000000
    123      1      1   0.000000  12.167546   5.320191   0.000000
    124      1      1   0.000000  18.377460   6.519793   0.000000
    125      1      1   0.000000   2.107627   4.230324   0.000000
    126      1      1   0.000000   6.864419  21.597926   0.000000
    127      1      1   0.000000  12.677412  12.189066   0.000000
    128      1      1   0.000000  21.084755   8.774983   0.000000
    129      1      1   0.000000  12.434482   8.457315   0.000000
    130      1      1   0.000000   0.625806  17.452001   0.000000
    131      1      1   0.000000  17.260212   6.207231   0.000000
    132      1      1   0.000000   4.934199  15.103741   0.000000
    133      1      1   0.000000  17.076929  14.111053   0.000000
    134      1      1   0.000000   7.977100   9.877136   0.000000
    135      1      1   0.000000  18.381337  16.473219   0.000000
    136      1      1   0.000000  16.537089   9.531365   0.000000
    137      1      1   0.000000  11.654523   8.948991   0.000000
    138      1      1   0.000000   2.506841   8.196662   0.000000
    139      1      1   0.000000   2.520399   3.406841   0.000000
    140      1      1   0.000000   2.605817  20.485151   0.000000
    141      1      1   0.000000   1.951499  21.274940   0.000000
    142      1      1   0.000000   2.218138  16.860426   0.000000
    143      1      1   0.000000   4.838245  12.844082   0.000000
    144      1      1   0.000000  14.656850   1.230093   0.000000
    145      1      1   0.000000  12.402248  15.074563   0.000000
    146      1      1   0.000000   0.942326   2.640412   0.000000
    147      1      1   0.000000   2.243633   6.175337   0.000000
    148      1      1   0.000000  21.799360   8.060290   0.000000
    149      1      1   0.000000  12.107451   6.784395   0.000000
    150      1      1   0.000000   4.746195   1.891002   0.000000
    151      1      1   0.000000   5.994335   3.716415   0.000000
    152      1      1   0.000000  16.439377   3.336494   0.000000
    153      1      1   0.000000  13.349659   8.306434   0.000000
    154      1      1   0.000000  21.610436   1.479046   0.000000
    155      1      1   0.000000  17.421919  16.384921   0.000000
    156      1      1   0.000000   4.898095   5.899519   0.000000
    157      1      1   0.000000  10.305134   4.539198   0.000000
    158      1      1   0.000000  13.310222  20.740444   0.000000
    159      1      1   0.000000  18.092469  20.969413   0.000000
    160      1      1   0.000000   3.731718  16.486390   0.000000
    161      1      1   0.000000   0.718028  14.777464   0.000000
    162      1      1   0.000000   2.095339   1.182628   0.000000
    163      1      1   0.000000  10.132008  17.833572   0.000000
    164      1      1   0.000000  12.705960  16.908059   0.000000
    165      1      1   0.000000  13.553031  10.094825   0.000000
    166      1      1   0.000000   7.266795  12.241045   0.000000
    167      1      1   0.000000   0.266835   3.345462   0.000000
    168      1      1   0.000000  12.351139   2.573781   0.000000
    169      1      1   0.000000   7.878145  11.520229   0.000000
    170      1      1   0.000000  12.718355   6.070535   0.000000
    171      1      1   0.000000  15.779314  19.086651   0.000000
    172      1      1   0.000000  14.523356   9.463662   0.000000
    173      1      1   0.000000   5.056796   3.634407   0.000000
    174      1      1   0.000000   1.959542  15.958121   0.000000
    175      1      1   0.000000   8.900118   2.579543   0.000000
    176      1      1   0.000000  14.484145   2.276065   0.000000
    177      1      1   0.000000   5.229127   2.700096   0.000000
    178      1      1   0.000000  16.666170   4.274392   0.000000
    179      1      1   0.000000   1.493321   7.700679   0.000000
    180      1      1   0.000000   6.188471   0.817710   0.000000
    181      1      1   0.000000  18.066807   2.846372   0.000000
    182      1      1   0.000000   4.301398  20.244556   0.000000
    183      1      1   0.000000  14.126300  13.168824   0.000000
    184      1      1   0.000000  11.080933  17.826135   0.000000
    185      1      1   0.000000  20.646996  12.727702   0.000000
    186      1      1   0.000000   5.360733   7.673307   0.000000
    187      1      1   0.000000   1.638743  15.008630   0.000000
    188      1      1   0.000000  17.117477  11.965380   0.000000
    189      1      1   0.000000  16.819799  17.455011   0.000000
    190      1      1   0.000000  20.545726   4.342640   0.000000
    191      1      1   0.000000  21.218676  14.763825   0.000000
    192      1      1   0.000000   0.028399   8.985095   0.000000
    193      1      1   0.000000   5.641611  15.789914   0.000000
    194      1      1   0.000000  13.655696  16.982435   0.000000
    195      1      1   0.000000  20.873734   7.858045   0.000000
    196      1      1   0.000000  20.498349  20.536023   0.000000
    197      1      1   0.000000  12.055494   4.268836   0.000000
    198      1      1   0.000000  20.373560   0.410886   0.000000
    199      1      1   0.000000  14.126774  20.141962   0.000000
    200      1      1   0.000000   7.552905   6.235868   0.000000
    201      1      1   0.000000  10.655855   3.125351   0.000000
    202      1      1   0.000000  13.342923  21.697156   0.000000
    203      1      1   0.000000  11.534711  10.631368   0.000000
    204      1      1   0.000000  20.721929  17.558921   0.000000
    205      1      1   0.000000  20.163710   8.567522   0.000000
    206      1      1   0.000000   8.633837  14.338883   0.000000
    207      1      1   0.000000  21.330239   0.557496   0.000000
    208      1      1   0.000000   4.427837   7.917972   0.000000
    209      1      1   0.000000   2.471228   2.062423   0.000000
    210      1      1   0.000000   1.252592  10.352913   0.000000
    211      1      1   0.000000  20.148569  21.439848   0.000000
    212      1      1   0.000000  18.590809   7.441184   0.000000
    213      1      1   0.000000   0.572371  11.051360   0.000000
    214      1      1   0.000000   3.184654   2.726034   0.000000
    215      1      1   0.000000   6.887258  11.358398   0.000000
    216      1      1   0.000000   3.155848  18.856537   0.000000
    217      1      1   0.000000  17.932783  11.442392   0.000000
    218      1      1   0.000000   7.407980   7.197906   0.000000
    219      1      1   0.000000  21.531184   7.142722   0.000000
    220      1      1   0.000000  13.221556  19.784673   0.000000
    221      1      1   0.000000  20.115526   6.111096   0.000000
    222      1      1   0.000000  17.876435   0.710544   0.000000
    223      1      1   0.000000  20.208475  19.187286   0.000000
    224      1      1   0.000000   9.874906   9.725567   0.000000
    225      1      1   0.000000  11.208173   7.115101   0.000000
    226      1      1   0.000000  17.897462  12.544740   0.000000
    227      1      1   0.000000   6.196887   2.669073   0.000000
    228      1      1   0.000000  10.653059  21.014662   0.000000
    229      1      1   0.000000  13.927694   7.538527   0.000000
    230      1      1   0.000000   1.003548  21.141760   0.000000
    231      1      1   0.000000  13.633344   5.756775   0.000000
    232      1      1   0.000000   9.614045   6.199740   0.000000
    233      1      1   0.000000  16.368126  18.318038   0.000000
    234      1      1   0.000000   6.305558   4.626431   0.000000
    235      1      1   0.000000  18.862343  17.300420   0.000000
    236      1      1   0.000000  12.074990  11.448629   0.000000
    237      1      1   0.000000   4.223916   4.131998   0.000000
    238      1      1   0.000000  16.178753  13.779916   0.000000
    239      1      1   0.000000  13.198433   0.704206   0.000000
    240      1      1   0.000000   2.223468   0.223624   0.000000
    241      1      1   0.000000   9.842701   0.772129   0.000000
    242      1      1   0.000000  15.359500   8.456939   0.000000
    243      1      1   0.000000  19.699266  12.493848   0.000000
    244      1      1   0.000000   0.918479  18.364346   0.000000
    245      1      1   0.000000  21.656463  17.254080   0.000000
    246      1      1   0.000000   8.641287   5.999720   0.000000
    247      1      1   0.000000  21.080060   2.288059   0.000000
    248      1      1   0.000000  13.668397   3.872598   0.000000
    249      1      1   0.000000  18.972167   4.783590   0.000000
    250      1      1   0.000000  12.714142   9.375529   0.000000
    251      1      1   0.000000  14.921121   7.560541   0.000000
    252      1      1   0.000000   7.738050  15.920974   0.000000
    253      1      1   0.000000  11.449914  15.236003   0.000000
    254      1      1   0.000000  16.357380   1.570308   0.000000
    255      1      1   0.000000  19.426451   0.143245   0.000000
    256      1      1   0.000000  17.380369  18.260832   0.000000
    257      1      1   0.000000  14.943963  19.591592   0.000000
    258      1      1   0.000000  18.451853  21.872962   0.000000
    259      1      1   0.000000   7.908893   5.316080   0.000000
    260      1      1   0.000000  14.951818  10.342150   0.000000
    261      1      1   0.000000   9.333744   8.098095   0.000000
    262      1      1   0.000000   9.407393   4.163784   0.000000
    263      1      1   0.000000   7.132281   0.550521   0.000000
    264      1      1   0.000000   8.854381  11.721855   0.000000
    265      1      1   0.000000   8.113081   1.995490   0.000000
    266      1      1   0.000000  13.319017  11.312046   0.000000
    267      1      1   0.000000   9.668797   3.188602   0.000000
    268      1      1   0.000000   0.292906  10.097382   0.000000
    269      1      1   0.000000  14.153738  15.461956   0.000000
    270      1      1   0.000000   3.155592   5.570642   0.000000
    271      1      1   0.000000   9.024181   0.190469   0.000000
    272      1      1   0.000000   8.439090   4.455922   0.000000
    273      1      1   0.000000  17.385622   1.580124   0.000000
    274      1      1   0.000000  18.521651  20.090890   0.000000
    275      1      1   0.000000  19.355031  16.426256   0.000000
    276      1      1   0.000000  12.910688  13.128171   0.000000
    277      1      1   0.000000   5.834744  21.870348   0.000000
    278      1      1   0.000000   5.783798   5.484446   0.000000
    279      1      1   0.000000  18.770289  10.897845   0.000000
    280      1      1   0.000000  11.572376  18.682948   0.000000
    281      1      1   0.000000  17.620603   4.602047   0.000000
    282      1      1   0.000000  11.836375   1.378445   0.000000
    283      1      1   0.000000  15.386343   1.877553   0.000000
    284      1      1   0.000000  16.874001   0.698933   0.000000
    285      1      1   0.000000  12.227011   0.433752   0.000000
    286      1      1   0.000000   9.725971  16.328774   0.000000
    287      1      1   0.000000   7.685110  14.030684   0.000000
    288      1      1   0.000000   1.586458  17.605481   0.000000
    289      1      1   0.000000   9.014931  15.374152   0.000000
    290      1      1   0.000000   2.206303   5.197061   0.000000
    291      1      1   0.000000   0.331052   0.783294   0.000000
    292      1      1   0.000000   3.961287   6.197395   0.000000
    293      1      1   0.000000  18.394883  18.195358   0.000000
    294      1      1   0.000000  18.846090   0.977738   0.000000
    295      1      1   0.000000  15.376995  14.396469   0.000000
    296      1      1   0.000000  12.716228   3.521278   0.000000
    297      1      1   0.000000   4.144835  11.477445   0.000000
    298      1      1   0.000000  10.235193  20.096260   0.000000
    299      1      1   0.000000   6.597579  10.389762   0.000000
    300      1      1   0.000000   6.128883  18.221107   0.000000
    301      1      1   0.000000  13.135559  17.834470   0.000000
    302      1      1   0.000000   7.161506   2.369665   0.000000
    303      1      1   0.000000  20.808343  11.744784   0.000000
    304      1      1   0.000000  19.444805   9.266794   0.000000
    305      1      1   0.000000   6.919053   3.376681   0.000000
    306      1      1   0.000000   2.131080   9.417738   0.000000
    307      1      1   0.000000   4.889808  10.759181   0.000000
    308      1      1   0.000000   9.137327   7.094139   0.000000
    309      1      1   0.000000  15.114843  21.789434   0.000000
    310      1      1   0.000000   5.093430  11.893422   0.000000
    311      1      1   0.000000  18.364624   1.894357   0.000000
    312      1      1   0.000000   7.915958   3.082835   0.000000
    313      1      1   0.000000  12.585994  14.105622   0.000000
    314      1      1   0.000000   4.706759   6.916487   0.000000
    315      1      1   0.000000   1.630839  20.343012   0.000000
    316      1      1   0.000000  11.418507  16.884672   0.000000
    317      1      1   0.000000  10.377773   5.528245   0.000000
    318      1      1   0.000000   3.036132   4.548033   0.000000
    319      1      1   0.000000  13.354971  14.812632   0.000000
    320      1      1   0.000000  11.696004   3.324432   0.000000
    321      1      1   0.000000  13.655657  12.284771   0.000000
    322      1      1   0.000000   3.778307   0.170035   0.000000
    323      1      1   0.000000  17.397710   3.591666   0.000000
    324      1      1   0.000000   5.206193   1.012652   0.000000
    325      1      1   0.000000  12.260672  19.455910   0.000000
    326      1      1   0.000000  16.293289  15.680313   0.000000
    327      1      1   0.000000   0.551680   7.357481   0.000000
    328      1      1   0.000000   6.221158   8.466525   0.000000
    329      1      1   0.000000  19.070025   2.821373   0.000000
    330      1      1   0.000000  19.203140   8.250138   0.000000
    331      1      1   0.000000  12.383340  21.379150   0.000000
    332      1      1   0.000000  18.808864  13.002463   0.000000
    333      1      1   0.000000  21.659863   5.186259   0.000000
    334      1      1   0.000000  17.947208  13.612266   0.000000
    335      1      1   0.000000  19.424886   6.860646   0.000000
    336      1      1   0.000000   3.066580   0.946206   0.000000
    337      1      1   0.000000  14.505339  16.435830   0.000000
    338      1      1   0.000000  14.527266  17.494270   0.000000
    339      1      1   0.000000  14.332439   8.478126   0.000000
    340      1      1   0.000000  17.173351  15.097490   0.000000
    341      1      1   0.000000   1.204210  13.902581   0.000000
    342      1      1   0.000000  16.609535  20.852406   0.000000
    343      1      1   0.000000  15.409222   6.651861   0.000000
    344      1      1   0.000000   5.682510   6.520234   0.000000
    345      1      1   0.000000   6.874090   5.481327   0.000000
    346      1      1   0.000000   8.156712  18.427480   0.000000
    347      1      1   0.000000  17.102535  10.846348   0.000000
    348      1      1   0.000000   9.633664  14.530387   0.000000
    349      1      1   0.000000  17.092640   2.578749   0.000000
    350      1      1   0.000000  21.286319   9.747398   0.000000
    351      1      1   0.000000   6.174386  20.884229   0.000000
    352      1      1   0.000000   3.692519   7.210829   0.000000
    353      1      1   0.000000  18.827441  11.940543   0.000000
    354      1      1   0.000000  11.079849   8.134007   0.000000
    355      1      1   0.000000  21.490747  20.759402   0.000000
    356      1      1   0.000000  14.115522   4.847027   0.000000
    357      1      1   0.000000   1.191425   0.181675   0.000000
    358      1      1   0.000000  10.702885  14.516238   0.000000
    359      1      1   0.000000  12.088289  17.704743   0.000000
    360      1      1   0.000000   3.303855  10.844242   0.000000
    361      1      1   0.000000   7.783562  19.429996   0.000000
    362      1      1   0.000000  21.861338  11.815847   0.000000
    363      1      1   0.000000   3.896389  12.501462   0.000000
    364      1      1   0.000000  15.854311  20.095846   0.000000
    365      1      1   0.000000   1.382406   6.691800   0.000000
    366      1      1   0.000000   8.675672  16.370141   0.000000
    367      1      1   0.000000  17.827859  17.307250   0.000000
    368      1      1   0.000000  15.536877   9.478664   0.000000
    369      1      1   0.000000  14.545709  11.702107   0.000000
    370      1      1   0.000000   4.760346  18.241123   0.000000
    371      1      1   0.000000   9.883736  11.444182   0.000000
    372      1      1   0.000000  12.902697   7.402132   0.000000
    373      1      1   0.000000  21.491295  10.802619   0.000000
    374      1      1   0.000000   4.199954   5.169088   0.000000
    375      1      1   0.000000   5.149086   4.646503   0.000000
    376      1      1   0.000000   6.631429  13.986069   0.000000
    377      1      1   0.000000  17.450967  20.186437   0.000000
    378      1      1   0.000000   9.316309   5.206446   0.000000
    379      1      1   0.000000   1.214934  19.362496   0.000000
    380      1      1   0.000000  10.510931  10.542067   0.000000
    381      1      1   0.000000   4.655761  16.068850   0.000000
    382      1      1   0.000000  17.600099   7.152448   0.000000
    383      1      1   0.000000   5.871906  11.167311   0.000000
    384      1      1   0.000000   0.425735   4.351049   0.000000
    385      1      1   0.000000  12.846614   1.684650   0.000000
    386      1      1   0.000000  19.599977   3.946497   0.000000
    387      1      1   0.000000   8.517553  10.726983   0.000000
    388      1      1   0.000000  15.595461  17.620780   0.000000
    389      1      1   0.000000  11.212627  19.679615   0.000000
    390      1      1   0.000000  11.250860   4.910263   0.000000
    391      1      1   0.000000  21.442113  16.128379   0.000000
    392      1      1   0.000000  18.042381   5.571820   0.000000
    393      1      1   0.000000   0.839771  12.887789   0.000000
    394      1      1   0.000000  15.250087   2.954879   0.000000
    395      1      1   0.000000  10.175088   8.729830   0.000000
    396      1      1   0.000000  21.218312   3.326795   0.000000
    397      1      1   0.000000   6.106340  12.235378   0.000000
    398      1      1   0.000000   5.894643  14.791260   0.000000
    399      1      1   0.000000   2.281893  10.475459   0.000000
    400      1      1   0.000000   8.325899   7.790741   0.000000
    401      1      1   0.000000   2.576037  17.993897   0.000000
    402      1      1   0.000000  14.178252   0.334820   0.000000
    403      1      1   0.000000  17.265425   8.827369   0.000000
    404      1      1   0.000000  15.582498  16.523016   0.000000
    405      1      1   0.000000   7.033966  20.220405   0.000000
    406      1      1   0.000000  19.112218   5.826211   0.000000
    407      1      1   0.000000   9.265416  17.288697   0.000000
    408      1      1   0.000000  18.168534  14.670376   0.000000
    409      1      1   0.000000  14.237349  21.172167   0.000000
    410      1      1   0.000000   3.741146  15.462688   0.000000
    411      1      1   0.000000   0.946893  15.776066   0.000000
    412      1      1   0.000000   1.923369  13.090089   0.000000
    413      1      1   0.000000  10.876145  13.438869   0.000000
    414      1      1   0.000000   2.387308   7.185915   0.000000
    415      1      1   0.000000   2.957018  21.441514   0.000000
    416      1      1   0.000000  16.188218  21.853818   0.000000
    417      1      1   0.000000   8.237755   8.893542   0.000000
    418      1      1   0.000000  14.930494  18.502704   0.000000
    419      1      1   0.000000   9.641845  21.296691   0.000000
    420      1      1   0.000000   9.736229  13.445111   0.000000
    421      1      1   0.000000  10.754109  16.033693   0.000000
    422      1      1   0.000000  10.032525   2.189366   0.000000
    423      1      1   0.000000   8.155441  17.336519   0.000000
    424      1      1   0.000000  19.586904  20.033811   0.000000
    425      1      1   0.000000   2.265443  14.149971   0.000000
    426      1      1   0.000000  15.598907   0.828422   0.000000
    427      1      1   0.000000   2.660144  15.196975   0.000000
    428      1      1   0.000000  12.119117  16.059672   0.000000
    429      1      1   0.000000   0.027665  14.012254   0.000000
    430      1      1   0.000000  11.309651   2.311200   0.000000
    431      1      1   0.000000  21.166286   6.156982   0.000000
    432      1      1   0.000000  20.417444  16.551300   0.000000
    433      1      1   0.000000  19.062936  19.043257   0.000000
    434      1      1   0.000000  17.621115   9.882112   0.000000
    435      1      1   0.000000  20.155474  14.630488   0.000000
    436      1      1   0.000000   3.719245   1.821205   0.000000
    437      1      1   0.000000   4.120640  13.579289   0.000000
    438      1      1   0.000000   4.510137  17.166208   0.000000
    439      1      1   0.000000  13.242370  16.022667   0.000000
    440      1      1   0.000000  19.783329  11.398882   0.000000
    441      1      1   0.000000   0.141679  19.089311   0.000000
    442      1      1   0.000000  15.224578  15.465512   0.000000
    443      1      1   0.000000  16.263774   5.965523   0.000000
    444      1      1   0.000000  19.161211  21.074357   0.000000
    445      1      1   0.000000   8.619370  13.288208   0.000000
    446      1      1   0.000000   5.763822  13.296589   0.000000
    447      1      1   0.000000   4.068725  10.049352   0.000000
    448      1      1   0.000000   2.316507  19.496723   0.000000