LAMMPS data file.

    100 atoms
    157 bonds
    344 angles
      0 dihedrals
      0 impropers
      1 atom types
    157 bond types
    344 angle types
      0 dihedral types
      0 improper types
  -5.502899   5.502899 xlo xhi
  -5.502899   5.502899 ylo yhi
  -0.100000   0.100000 zlo zhi
0.0 0.0 0.0 xy xz yz

Masses # ['atom_id', 'mass']

1 1000000.0

Atoms # ['atomID', 'moleculeID', 'atomType', 'charge', 'x', 'y', 'z']

     35      1      1   0.000000  -5.137838  -4.562105   0.000000
     90      1      1   0.000000  -4.280569  -4.998592   0.000000
     47      1      1   0.000000  -3.251474  -4.643560   0.000000
     88      1      1   0.000000  -2.170782  -4.487524   0.000000
     59      1      1   0.000000  -1.324216  -4.784391   0.000000
     93      1      1   0.000000  -0.357076  -5.016414   0.000000
     99      1      1   0.000000   0.415173  -4.575370   0.000000
     80      1      1   0.000000   1.023794  -5.192591   0.000000
     28      1      1   0.000000   2.069889  -5.488582   0.000000
     98      1      1   0.000000   2.639713  -4.447852   0.000000
     70      1      1   0.000000   3.096672  -5.256183   0.000000
     94      1      1   0.000000   4.106433  -5.158852   0.000000
     66      1      1   0.000000   5.035491  -5.145447   0.000000
     81      1      1   0.000000  -5.245035  -3.439503   0.000000
     43      1      1   0.000000  -4.311840  -3.865204   0.000000
     87      1      1   0.000000  -3.405107  -3.576315   0.000000
     95      1      1   0.000000  -2.568618  -3.768486   0.000000
     27      1      1   0.000000  -1.576675  -3.552620   0.000000
     53      1      1   0.000000  -0.503256  -4.053815   0.000000
     26      1      1   0.000000   0.448892  -3.422892   0.000000
     14      1      1   0.000000   1.570166  -4.189813   0.000000
     72      1      1   0.000000   2.723614  -3.484406   0.000000
     54      1      1   0.000000   3.542885  -4.248945   0.000000
     22      1      1   0.000000   4.726602  -4.003684   0.000000
     83      1      1   0.000000  -5.005995  -2.557013   0.000000
     67      1      1   0.000000  -3.972609  -2.802706   0.000000
     36      1      1   0.000000  -2.674809  -2.728772   0.000000
     12      1      1   0.000000  -1.529110  -2.297755   0.000000
     68      1      1   0.000000  -0.556306  -2.966099   0.000000
     76      1      1   0.000000   0.341305  -2.369656   0.000000
      3      1      1   0.000000   1.625957  -2.779768   0.000000
     50      1      1   0.000000   2.905530  -2.345689   0.000000
     30      1      1   0.000000   3.863001  -3.147701   0.000000
     64      1      1   0.000000   4.971924  -2.739615   0.000000
     55      1      1   0.000000  -4.357830  -1.809679   0.000000
     84      1      1   0.000000  -3.436737  -1.998693   0.000000
     10      1      1   0.000000  -2.401837  -1.246332   0.000000
    100      1      1   0.000000  -0.506099  -1.947775   0.000000
     46      1      1   0.000000  -1.064763  -1.051415   0.000000
     33      1      1   0.000000   0.133330  -1.173331   0.000000
     61      1      1   0.000000   1.082565  -1.721578   0.000000
     65      1      1   0.000000   2.108797  -1.620266   0.000000
     75      1      1   0.000000   4.231526  -2.127130   0.000000
     63      1      1   0.000000   3.352428  -1.434313   0.000000
     42      1      1   0.000000   5.366363  -1.645310   0.000000
     48      1      1   0.000000  -4.783808  -0.703721   0.000000
     62      1      1   0.000000  -3.641330  -0.970958   0.000000
     79      1      1   0.000000  -3.976535  -0.048814   0.000000
     40      1      1   0.000000  -1.705688  -0.130415   0.000000
      7      1      1   0.000000  -0.169184   0.067625   0.000000
     21      1      1   0.000000   1.316171  -0.496793   0.000000
     37      1      1   0.000000   2.643966  -0.625984   0.000000
     74      1      1   0.000000   3.750482  -0.462572   0.000000
     78      1      1   0.000000   4.372766  -1.152847   0.000000
      4      1      1   0.000000   5.029234  -0.215225   0.000000
     38      1      1   0.000000  -4.804488   0.570375   0.000000
     89      1      1   0.000000  -3.744546   0.785957   0.000000
     29      1      1   0.000000  -2.916416   0.096216   0.000000
     77      1      1   0.000000  -2.168976   0.859062   0.000000
     60      1      1   0.000000  -1.110607   0.773407   0.000000
      1      1      1   0.000000   1.010503   0.850599   0.000000
      9      1      1   0.000000   2.429539   0.573974   0.000000
     13      1      1   0.000000   3.843853   0.688321   0.000000
     15      1      1   0.000000  -4.388889   1.820743   0.000000
     25      1      1   0.000000  -2.956772   1.682376   0.000000
     41      1      1   0.000000  -1.635625   1.791545   0.000000
     18      1      1   0.000000  -0.238307   1.600142   0.000000
     86      1      1   0.000000   0.840638   2.000349   0.000000
      8      1      1   0.000000   1.973265   1.932448   0.000000
     57      1      1   0.000000   3.130540   1.642812   0.000000
     91      1      1   0.000000   4.052201   1.750781   0.000000
      5      1      1   0.000000   5.156246   1.341193   0.000000
     82      1      1   0.000000  -5.348613   2.428961   0.000000
     69      1      1   0.000000  -4.623134   3.063777   0.000000
     39      1      1   0.000000  -3.524368   2.956419   0.000000
     16      1      1   0.000000  -2.205754   3.034474   0.000000
     51      1      1   0.000000  -0.958777   2.638598   0.000000
     20      1      1   0.000000   0.193641   2.935567   0.000000
     96      1      1   0.000000   1.267761   2.868907   0.000000
     85      1      1   0.000000   2.179041   3.081473   0.000000
     23      1      1   0.000000   3.196451   2.832507   0.000000
     17      1      1   0.000000   4.602411   2.686912   0.000000
     11      1      1   0.000000   5.431429   3.741913   0.000000
     58      1      1   0.000000  -4.209647   4.048802   0.000000
     32      1      1   0.000000  -3.038310   4.132106   0.000000
     71      1      1   0.000000  -1.915489   4.202823   0.000000
     44      1      1   0.000000  -0.952539   3.692127   0.000000
     73      1      1   0.000000   0.101688   4.185367   0.000000
     97      1      1   0.000000   0.916927   3.684120   0.000000
     92      1      1   0.000000   1.690557   3.708188   0.000000
      6      1      1   0.000000   2.655854   4.265176   0.000000
     45      1      1   0.000000   3.969694   3.835077   0.000000
     19      1      1   0.000000  -4.977979   5.049685   0.000000
     49      1      1   0.000000  -3.657193   5.135175   0.000000
     24      1      1   0.000000  -2.388758   5.389560   0.000000
      2      1      1   0.000000  -0.950875   5.003855   0.000000
     52      1      1   0.000000   0.252985   5.240805   0.000000
     34      1      1   0.000000   1.249946   4.690515   0.000000
     56      1      1   0.000000   3.617403   4.943563   0.000000
     31      1      1   0.000000   4.710980   4.874980   0.000000

Bond Coeffs # ['bondID', 'bondCoeff', 'd']

      1   0.616592   1.273506
      2   1.071130   0.966226
      3   0.664264   1.226958
      4   0.947641   1.027255
      5   0.832906   1.095726
      6   1.054890   0.973635
      7   0.597500   1.293692
      8   0.911488   1.047429
      9   0.784313   1.129160
     10   0.570847   1.323550
     11   0.722332   1.176608
     12   0.674463   1.217646
     13   0.776727   1.134660
     14   0.423101   1.537368
     15   0.598698   1.292397
     16   0.620280   1.269714
     17   0.502174   1.411149
     18   0.889892   1.060062
     19   0.820471   1.103998
     20   1.080578   0.961993
     21   1.158307   0.929155
     22   0.739181   1.163120
     23   0.756711   1.149568
     24   0.530610   1.372816
     25   0.740313   1.162230
     26   0.566705   1.328377
     27   0.790059   1.125046
     28   1.161284   0.927963
     29   0.601940   1.288913
     30   0.971731   1.014442
     31   0.581864   1.310960
     32   0.716206   1.181629
     33   0.929141   1.037431
     34   0.886327   1.062192
     35   0.573120   1.320922
     36   0.523243   1.382447
     37   0.496682   1.418930
     38   0.702654   1.192969
     39   0.876731   1.067989
     40   0.798207   1.119289
     41   1.357507   0.858280
     42   0.463220   1.469286
     43   0.763309   1.144589
     44   0.636758   1.253178
     45   0.841692   1.089992
     46   0.902289   1.052755
     47   0.873449   1.069993
     48   1.104214   0.951642
     49   1.031803   0.984468
     50   1.069213   0.967092
     51   0.396064   1.588976
     52   0.565296   1.330032
     53   0.820289   1.104121
     54   0.672966   1.218999
     55   0.643223   1.246864
     56   0.483067   1.438786
     57   1.142055   0.935743
     58   0.507629   1.403546
     59   0.706085   1.190067
     60   0.970358   1.015159
     61   0.915515   1.045122
     62   0.584225   1.308308
     63   0.619375   1.270642
     64   1.131044   0.940287
     65   0.499224   1.415313
     66   0.750033   1.154675
     67   0.561882   1.334066
     68   0.843213   1.089009
     69   0.846077   1.087164
     70   1.669218   0.774005
     71   1.010922   0.994583
     72   0.752009   1.153157
     73   0.484039   1.437341
     74   1.196274   0.914292
     75   0.774594   1.136221
     76   0.547718   1.351206
     77   0.615859   1.274264
     78   0.862735   1.076617
     79   0.853960   1.082135
     80   0.578070   1.315254
     81   0.659098   1.231757
     82   0.725180   1.174295
     83   0.917534   1.043972
     84   1.031490   0.984617
     85   0.900930   1.053548
     86   0.721939   1.176928
     87   0.755122   1.150778
     88   0.813170   1.108944
     89   0.634136   1.255766
     90   0.502732   1.410366
     91   0.843822   1.088616
     92   0.704365   1.191519
     93   0.876235   1.068291
     94   0.426478   1.531269
     95   0.472212   1.455229
     96   0.777880   1.133819
     97   0.863426   1.076186
     98   0.896405   1.056204
     99   0.486941   1.433052
    100   0.762439   1.145242
    101   0.910665   1.047902
    102   0.940365   1.031221
    103   0.575990   1.317627
    104   0.849347   1.085069
    105   0.860130   1.078246
    106   0.853076   1.082695
    107   1.076065   0.964008
    108   0.511078   1.398802
    109   0.733890   1.167305
    110   1.115975   0.946614
    111   1.242539   0.897108
    112   1.332160   0.866407
    113   0.451208   1.488715
    114   0.771159   1.138749
    115   1.264400   0.889319
    116   0.855404   1.081221
    117   0.866560   1.074239
    118   1.169203   0.924816
    119   1.269587   0.887501
    120   0.711946   1.185158
    121   0.721147   1.177573
    122   0.970568   1.015049
    123   0.896433   1.056188
    124   0.523862   1.381629
    125   0.710319   1.186515
    126   0.848115   1.085857
    127   0.854736   1.081643
    128   0.541881   1.358464
    129   0.547726   1.351196
    130   0.892156   1.058716
    131   0.478427   1.445747
    132   0.823971   1.101651
    133   0.886932   1.061829
    134   0.714779   1.182808
    135   0.689517   1.204280
    136   0.906843   1.050108
    137   0.514046   1.394758
    138   0.684303   1.208859
    139   0.633882   1.256017
    140   0.466124   1.464701
    141   0.738182   1.163907
    142   1.038732   0.981179
    143   0.950503   1.025707
    144   0.538557   1.362650
    145   0.799309   1.118517
    146   0.786332   1.127709
    147   0.569039   1.325651
    148   0.766820   1.141966
    149   0.881447   1.065128
    150   0.689991   1.203866
    151   0.591804   1.299904
    152   0.612938   1.277296
    153   0.739052   1.163221
    154   0.708430   1.188096
    155   0.805132   1.114465
    156   0.879631   1.066227
    157   0.838756   1.091898

Bonds # ['ID', 'type', 'atom1', 'atom2']

         1         1        59         2
         2         2        67        84
         3         3         2        52
         4         4        94        56
         5         5        56        31
         6         6        93        53
         7         7        49        24
         8         8        85        23
         9         9        65        37
        10        10        19        49
        11        11         7        60
        12        12        99        14
        13        13        86         8
        14        14        15         5
        15        15        47        49
        16        16        10        62
        17        17        14         3
        18        18        97        34
        19        19        69        39
        20        20        35        90
        21        21        94        66
        22        22        45        56
        23        23        88        24
        24        24        27        36
        25        25         1        86
        26        26        19        31
        27        27        32        71
        28        28        57        91
        29        29        48         4
        30        30        70        94
        31        31        17        45
        32        32        30        64
        33        33        66        31
        34        34        83        67
        35        35        39        16
        36        36         6        45
        37        37         9        13
        38        38         8        57
        39        39        29        77
        40        40        75        63
        41        41        87        95
        42        42        42         4
        43        43        78         4
        44        44        20        73
        45        45        71        44
        46        46        28        70
        47        47        79        29
        48        48        43        87
        49        49        75        78
        50        50        98        72
        51        51         7        21
        52        52        12        46
        53        53        26        68
        54        54        89        15
        55        55        61        21
        56        56        15        25
        57        57        96        85
        58        58        18        20
        59        59        51        20
        60        60        95        27
        61        61        95        36
        62        62        16        51
        63        63        35        22
        64        64        55        84
        65        65        32        24
        66        66        74        13
        67        67        21        37
        68        68        53        68
        69        69        80        28
        70        70        97        92
        71        71        59        93
        72        72        72        50
        73        73        11        19
        74        74        81        83
        75        75        15        82
        76        76        10        46
        77        77        48        38
        78        78        92        34
        79        79        40        60
        80        80        10        40
        81        81        40        29
        82        82        58        32
        83        83        83        64
        84        84        76        61
        85        85        51        44
        86        86        27        68
        87        87        18        86
        88        88        42        78
        89        89        27        12
        90        90        41        18
        91        91        90        47
        92        92        57        23
        93        93        69        58
        94        94        23         6
        95        95         5        17
        96        96        90        43
        97        97        20        96
        98        98       100        46
        99        99         9         8
       100       100        80        34
       101       101        84        62
       102       102        61        65
       103       103        38        15
       104       104        30        75
       105       105        47        87
       106       106        13        91
       107       107        82        69
       108       108        11        58
       109       109         8        85
       110       110        76       100
       111       111        88        59
       112       112        79        89
       113       113        24         2
       114       114        52        34
       115       115        93        99
       116       116        12       100
       117       117        77        41
       118       118        98        54
       119       119        96        97
       120       120        55        48
       121       121        91         5
       122       122        50        63
       123       123        99        53
       124       124        21         1
       125       125        28        98
       126       126        82        17
       127       127        38        89
       128       128        26        14
       129       129         3        50
       130       130        26        76
       131       131         1         9
       132       132        70        54
       133       133        77        60
       134       134        66        22
       135       135        46        33
       136       136        63        74
       137       137        25        39
       138       138        54        22
       139       139         3        65
       140       140        11        45
       141       141        44        73
       142       142        62        79
       143       143        81        43
       144       144        33        21
       145       145        37        74
       146       146        35        81
       147       147        25        41
       148       148        80        14
       149       149        67        55
       150       150        16        71
       151       151        67        36
       152       152        33         7
       153       153        64        42
       154       154        72        30
       155       155        92         6
       156       156        73        52
       157       157        47        88

Angle Coeffs # ['angleID', 'energy', 'value (deg)']

    126   0.010000 134.647317
    185   0.010000  54.463579
    305   0.010000  84.172584
    244   0.010000 152.964201
      8   0.010000 153.512308
    332   0.010000  69.260505
    256   0.010000 119.593872
    343   0.010000 104.639631
     21   0.010000 136.777950
    249   0.010000  73.551081
    116   0.010000  57.200968
    301   0.010000 138.405425
    331   0.010000  70.707307
    110   0.010000 176.259435
     26   0.010000  77.214653
    171   0.010000 156.419822
     36   0.010000 126.646931
     96   0.010000 111.056943
     98   0.010000 125.670653
    225   0.010000 111.968433
     76   0.010000  53.686271
    262   0.010000  75.210467
     64   0.010000 170.067444
    148   0.010000  50.370550
    199   0.010000  64.858727
    296   0.010000 115.412678
    237   0.010000  57.383193
     10   0.010000 100.842528
    195   0.010000  56.186697
    186   0.010000 102.725791
    271   0.010000 100.154960
     84   0.010000  64.770516
     88   0.010000  55.423367
    147   0.010000 176.154200
    200   0.010000  86.502325
    263   0.010000  72.726240
    151   0.010000  66.798440
     94   0.010000 161.736919
     44   0.010000 159.389357
    307   0.010000 131.888146
     33   0.010000 131.121809
    193   0.010000  62.972404
    168   0.010000  56.412055
     97   0.010000  62.769274
    109   0.010000  49.941786
    100   0.010000 112.370577
    274   0.010000  86.402932
    234   0.010000 169.379751
     62   0.010000  51.773794
     66   0.010000 130.203545
     79   0.010000  48.791096
    320   0.010000 111.999469
    150   0.010000  96.543149
    250   0.010000 161.378106
    269   0.010000 161.998486
    111   0.010000 126.317649
    323   0.010000 153.643940
     54   0.010000  83.554422
    155   0.010000 122.502289
     89   0.010000 163.365393
     16   0.010000  59.462101
    214   0.010000  50.539693
    321   0.010000 112.270587
    102   0.010000 122.298944
     81   0.010000  93.432441
    308   0.010000  80.687812
    342   0.010000 168.854134
    334   0.010000 150.301380
    177   0.010000 126.692020
    149   0.010000 146.913699
    170   0.010000  95.241217
     92   0.010000 139.861296
    183   0.010000  81.367239
    120   0.010000  67.144752
     31   0.010000  72.602920
      9   0.010000 116.511961
    238   0.010000  93.897702
    133   0.010000 144.421835
     90   0.010000 107.942026
    198   0.010000 129.788634
    324   0.010000 163.611218
    303   0.010000  67.623877
    154   0.010000  66.215443
     91   0.010000  47.290166
    280   0.010000 132.600037
    173   0.010000 108.338961
     34   0.010000 172.752462
    317   0.010000  57.928050
    145   0.010000  77.879626
      2   0.010000 122.437992
    135   0.010000  73.932228
     74   0.010000 111.440162
    284   0.010000 163.679721
    315   0.010000 176.146099
    124   0.010000 148.400043
     32   0.010000 156.275270
    130   0.010000 113.639492
     24   0.010000  59.322653
    105   0.010000  48.653314
    228   0.010000  51.724968
    310   0.010000  54.242689
    103   0.010000 111.004687
    101   0.010000 125.330479
    260   0.010000  93.660901
     13   0.010000  81.606001
    179   0.010000 162.362736
    165   0.010000  55.493712
    232   0.010000 156.218179
    258   0.010000 158.999338
    201   0.010000 147.768143
    106   0.010000 162.955338
    113   0.010000 130.025270
    287   0.010000  54.555194
     95   0.010000  50.679977
    329   0.010000 153.849265
    122   0.010000 109.431619
    184   0.010000  71.883903
     93   0.010000  92.571130
    121   0.010000 159.180143
     71   0.010000 153.681702
    299   0.010000 123.231203
    119   0.010000 135.057892
    216   0.010000  52.571583
    240   0.010000 159.267450
    279   0.010000 173.512021
     57   0.010000  55.292566
    114   0.010000  60.104989
    246   0.010000  94.194258
    236   0.010000  96.722547
    125   0.010000  76.952640
     65   0.010000  59.729010
    163   0.010000 163.947436
     12   0.010000  89.975731
    229   0.010000 100.124218
      6   0.010000  72.546284
    344   0.010000  64.214503
    261   0.010000 147.936707
    205   0.010000  66.187452
    326   0.010000 102.303309
    248   0.010000  47.275951
     70   0.010000  57.894761
    224   0.010000 109.289609
    139   0.010000 123.929315
     55   0.010000  49.155411
    241   0.010000  80.147439
    210   0.010000 105.717190
    267   0.010000  57.625727
    319   0.010000  60.363681
    283   0.010000 110.867827
     29   0.010000  48.544988
    291   0.010000 148.457151
     22   0.010000 168.728525
    289   0.010000 179.535863
    255   0.010000 171.031815
     51   0.010000  80.519518
    223   0.010000 169.757645
    158   0.010000  77.813497
    218   0.010000  50.295639
    140   0.010000 174.316617
    276   0.010000 100.579355
     80   0.010000 142.223537
      1   0.010000 179.087292
    204   0.010000 109.434954
    222   0.010000  60.468035
    340   0.010000 133.940984
    290   0.010000 121.387077
    227   0.010000  55.508067
     82   0.010000  91.781957
     56   0.010000 113.231005
    209   0.010000  80.739501
    339   0.010000  65.160474
    309   0.010000 168.773168
     35   0.010000  60.600607
     72   0.010000  95.786941
     78   0.010000 125.599456
     41   0.010000  75.688398
    330   0.010000 139.967812
      5   0.010000  61.436199
     18   0.010000 174.166318
    131   0.010000 165.895591
    172   0.010000  49.433706
     48   0.010000 116.101756
    132   0.010000  52.256099
    169   0.010000  50.574061
    313   0.010000  57.495420
    233   0.010000  78.053085
    273   0.010000 153.119522
    277   0.010000  55.576333
    325   0.010000  94.085474
    294   0.010000 117.599785
    118   0.010000  67.913140
    242   0.010000  79.120010
      4   0.010000 133.982483
    336   0.010000 167.231045
     25   0.010000  62.812127
    302   0.010000  68.496877
    202   0.010000  61.265818
    304   0.010000 151.796460
    219   0.010000 153.154446
    327   0.010000  95.912321
    275   0.010000  66.716590
    335   0.010000 100.587739
     40   0.010000  70.945160
     86   0.010000  54.885893
    207   0.010000 164.346878
    270   0.010000 163.318686
    117   0.010000 179.862446
    104   0.010000 159.658001
    191   0.010000 132.559203
     63   0.010000 122.383473
    247   0.010000 141.470209
    108   0.010000 134.860122
    245   0.010000  80.740617
    282   0.010000  52.811895
    300   0.010000  69.908547
     73   0.010000 175.900403
    292   0.010000  72.444077
    337   0.010000 143.055315
     47   0.010000 137.806574
     87   0.010000  53.056133
    281   0.010000  53.887942
    211   0.010000 173.543309
    134   0.010000  70.489607
     27   0.010000 140.026780
    264   0.010000 157.868106
     28   0.010000 151.447943
    166   0.010000 100.007767
    208   0.010000  60.403394
    182   0.010000 153.251142
    187   0.010000  48.262211
    295   0.010000 126.987537
     19   0.010000  67.874396
    174   0.010000 144.674923
    197   0.010000 165.352639
    278   0.010000 156.155688
     75   0.010000  64.460241
    164   0.010000 140.558852
     11   0.010000 169.181741
    221   0.010000 103.978333
    220   0.010000 102.867221
    128   0.010000  52.367383
     49   0.010000 149.389543
     14   0.010000  70.853771
    156   0.010000 171.282268
    157   0.010000  66.678983
     38   0.010000  56.066166
    136   0.010000 141.961410
    266   0.010000  97.759135
     17   0.010000 126.371581
    206   0.010000 103.943484
     58   0.010000 162.386416
    152   0.010000 133.336682
    181   0.010000  59.323728
     52   0.010000 154.784394
     20   0.010000  68.903553
     67   0.010000 110.725747
    243   0.010000  72.223583
    137   0.010000  73.563442
    188   0.010000 160.684263
    338   0.010000  49.713641
     39   0.010000 175.320902
     15   0.010000 152.459772
     69   0.010000  42.955955
    272   0.010000  63.163725
     77   0.010000 179.285727
    322   0.010000  51.340631
    314   0.010000 165.520436
    333   0.010000  42.467576
    328   0.010000  57.936944
    254   0.010000 153.958258
    161   0.010000 112.758851
    167   0.010000 164.751017
    268   0.010000 104.372759
    257   0.010000  69.374314
     50   0.010000  68.870025
    203   0.010000 175.622407
    312   0.010000 136.984143
    252   0.010000  72.809176
    286   0.010000 171.394502
    123   0.010000  49.748524
     85   0.010000 110.309260
    306   0.010000  51.200334
    235   0.010000 111.996558
    194   0.010000 142.205576
    318   0.010000 172.363150
    112   0.010000 169.869741
    251   0.010000 125.070813
    297   0.010000  69.134477
    189   0.010000 100.566700
    176   0.010000  67.266026
    127   0.010000  61.272109
     59   0.010000 104.447977
    316   0.010000 118.218049
    231   0.010000  78.165093
     61   0.010000 174.157267
    192   0.010000  69.586799
     37   0.010000 119.254735
    226   0.010000 167.476499
    298   0.010000 167.634320
    160   0.010000 178.596282
      7   0.010000  52.669780
    142   0.010000  60.006961
     53   0.010000  71.229972
    175   0.010000 106.986116
    212   0.010000 103.734278
    180   0.010000 103.039008
     46   0.010000 106.091669
     83   0.010000 156.552473
    341   0.010000  68.780510
    138   0.010000 144.475147
     68   0.010000  52.830986
    239   0.010000 151.280895
    143   0.010000 108.387146
    159   0.010000 144.492481
    190   0.010000  60.117563
    253   0.010000 133.232566
     45   0.010000  60.024053
     23   0.010000 131.948822
    107   0.010000  62.184540
    311   0.010000 111.277747
    217   0.010000 154.273971
    146   0.010000 105.966174
    288   0.010000  59.077060
    213   0.010000 156.305861
     60   0.010000  57.938439
    230   0.010000 151.849187
     42   0.010000 146.633558
    162   0.010000  68.644867
    115   0.010000 122.661479
    196   0.010000 161.607727
    265   0.010000 100.242378
    141   0.010000  61.754068
    144   0.010000 168.394107
    215   0.010000  53.438640
    153   0.010000 159.864878
    129   0.010000 104.623482
    178   0.010000 166.041955
    285   0.010000 116.839308
      3   0.010000  58.474717
     30   0.010000 102.902955
     43   0.010000  99.365304
     99   0.010000  62.901379
    293   0.010000  76.013073
    259   0.010000 107.339761

Angles # ['angleID', 'angleType', 'atom1', 'atom2', 'atom3']

       126       126        76       100        12
       185       185        48         4        42
       305       305        34        92         6
       244       244        57        91         5
         8         8        49        47        87
       332       332        34        52        73
       256       256        69        39        25
       343       343        56        31        66
        21        21        59        93        99
       249       249        15        82        69
       116       116        84        55        67
       301       301        34        97        96
       331       331         2        52        73
       110       110        64        30        72
        26        26        28        80        14
       171       171        61        21         1
        36        36        28        70        54
        96        96        27        12       100
        98        98        26        68        27
       225       225        18        41        77
        76        76        98        54        70
       262       262        20        51        44
        64        64        68        26        14
       148       148         4        42        78
       199       199        41        77        60