LAMMPS data file.

    100 atoms
    286 bonds
   1380 angles
      0 dihedrals
      0 impropers
      1 atom types
    286 bond types
   1380 angle types
      0 dihedral types
      0 improper types
  -5.502899   5.502899 xlo xhi
  -5.502899   5.502899 ylo yhi
  -0.100000   0.100000 zlo zhi
0.0 0.0 0.0 xy xz yz

Masses # ['atom_id', 'mass']

1 1000000.0

Atoms # ['atomID', 'moleculeID', 'atomType', 'charge', 'x', 'y', 'z']

     35      1      1   0.000000  -5.137838  -4.562105   0.000000
     90      1      1   0.000000  -4.280569  -4.998592   0.000000
     47      1      1   0.000000  -3.251474  -4.643560   0.000000
     88      1      1   0.000000  -2.170782  -4.487524   0.000000
     59      1      1   0.000000  -1.324216  -4.784391   0.000000
     93      1      1   0.000000  -0.357076  -5.016414   0.000000
     99      1      1   0.000000   0.415173  -4.575370   0.000000
     80      1      1   0.000000   1.023794  -5.192591   0.000000
     28      1      1   0.000000   2.069889  -5.488582   0.000000
     98      1      1   0.000000   2.639713  -4.447852   0.000000
     70      1      1   0.000000   3.096672  -5.256183   0.000000
     94      1      1   0.000000   4.106433  -5.158852   0.000000
     66      1      1   0.000000   5.035491  -5.145447   0.000000
     81      1      1   0.000000  -5.245035  -3.439503   0.000000
     43      1      1   0.000000  -4.311840  -3.865204   0.000000
     87      1      1   0.000000  -3.405107  -3.576315   0.000000
     95      1      1   0.000000  -2.568618  -3.768486   0.000000
     27      1      1   0.000000  -1.576675  -3.552620   0.000000
     53      1      1   0.000000  -0.503256  -4.053815   0.000000
     26      1      1   0.000000   0.448892  -3.422892   0.000000
     14      1      1   0.000000   1.570166  -4.189813   0.000000
     72      1      1   0.000000   2.723614  -3.484406   0.000000
     54      1      1   0.000000   3.542885  -4.248945   0.000000
     22      1      1   0.000000   4.726602  -4.003684   0.000000
     83      1      1   0.000000  -5.005995  -2.557013   0.000000
     67      1      1   0.000000  -3.972609  -2.802706   0.000000
     36      1      1   0.000000  -2.674809  -2.728772   0.000000
     12      1      1   0.000000  -1.529110  -2.297755   0.000000
     68      1      1   0.000000  -0.556306  -2.966099   0.000000
     76      1      1   0.000000   0.341305  -2.369656   0.000000
      3      1      1   0.000000   1.625957  -2.779768   0.000000
     50      1      1   0.000000   2.905530  -2.345689   0.000000
     30      1      1   0.000000   3.863001  -3.147701   0.000000
     64      1      1   0.000000   4.971924  -2.739615   0.000000
     55      1      1   0.000000  -4.357830  -1.809679   0.000000
     84      1      1   0.000000  -3.436737  -1.998693   0.000000
     10      1      1   0.000000  -2.401837  -1.246332   0.000000
    100      1      1   0.000000  -0.506099  -1.947775   0.000000
     46      1      1   0.000000  -1.064763  -1.051415   0.000000
     33      1      1   0.000000   0.133330  -1.173331   0.000000
     61      1      1   0.000000   1.082565  -1.721578   0.000000
     65      1      1   0.000000   2.108797  -1.620266   0.000000
     75      1      1   0.000000   4.231526  -2.127130   0.000000
     63      1      1   0.000000   3.352428  -1.434313   0.000000
     42      1      1   0.000000   5.366363  -1.645310   0.000000
     48      1      1   0.000000  -4.783808  -0.703721   0.000000
     62      1      1   0.000000  -3.641330  -0.970958   0.000000
     79      1      1   0.000000  -3.976535  -0.048814   0.000000
     40      1      1   0.000000  -1.705688  -0.130415   0.000000
      7      1      1   0.000000  -0.169184   0.067625   0.000000
     21      1      1   0.000000   1.316171  -0.496793   0.000000
     37      1      1   0.000000   2.643966  -0.625984   0.000000
     74      1      1   0.000000   3.750482  -0.462572   0.000000
     78      1      1   0.000000   4.372766  -1.152847   0.000000
      4      1      1   0.000000   5.029234  -0.215225   0.000000
     38      1      1   0.000000  -4.804488   0.570375   0.000000
     89      1      1   0.000000  -3.744546   0.785957   0.000000
     29      1      1   0.000000  -2.916416   0.096216   0.000000
     77      1      1   0.000000  -2.168976   0.859062   0.000000
     60      1      1   0.000000  -1.110607   0.773407   0.000000
      1      1      1   0.000000   1.010503   0.850599   0.000000
      9      1      1   0.000000   2.429539   0.573974   0.000000
     13      1      1   0.000000   3.843853   0.688321   0.000000
     15      1      1   0.000000  -4.388889   1.820743   0.000000
     25      1      1   0.000000  -2.956772   1.682376   0.000000
     41      1      1   0.000000  -1.635625   1.791545   0.000000
     18      1      1   0.000000  -0.238307   1.600142   0.000000
     86      1      1   0.000000   0.840638   2.000349   0.000000
      8      1      1   0.000000   1.973265   1.932448   0.000000
     57      1      1   0.000000   3.130540   1.642812   0.000000
     91      1      1   0.000000   4.052201   1.750781   0.000000
      5      1      1   0.000000   5.156246   1.341193   0.000000
     82      1      1   0.000000  -5.348613   2.428961   0.000000
     69      1      1   0.000000  -4.623134   3.063777   0.000000
     39      1      1   0.000000  -3.524368   2.956419   0.000000
     16      1      1   0.000000  -2.205754   3.034474   0.000000
     51      1      1   0.000000  -0.958777   2.638598   0.000000
     20      1      1   0.000000   0.193641   2.935567   0.000000
     96      1      1   0.000000   1.267761   2.868907   0.000000
     85      1      1   0.000000   2.179041   3.081473   0.000000
     23      1      1   0.000000   3.196451   2.832507   0.000000
     17      1      1   0.000000   4.602411   2.686912   0.000000
     11      1      1   0.000000   5.431429   3.741913   0.000000
     58      1      1   0.000000  -4.209647   4.048802   0.000000
     32      1      1   0.000000  -3.038310   4.132106   0.000000
     71      1      1   0.000000  -1.915489   4.202823   0.000000
     44      1      1   0.000000  -0.952539   3.692127   0.000000
     73      1      1   0.000000   0.101688   4.185367   0.000000
     97      1      1   0.000000   0.916927   3.684120   0.000000
     92      1      1   0.000000   1.690557   3.708188   0.000000
      6      1      1   0.000000   2.655854   4.265176   0.000000
     45      1      1   0.000000   3.969694   3.835077   0.000000
     19      1      1   0.000000  -4.977979   5.049685   0.000000
     49      1      1   0.000000  -3.657193   5.135175   0.000000
     24      1      1   0.000000  -2.388758   5.389560   0.000000
      2      1      1   0.000000  -0.950875   5.003855   0.000000
     52      1      1   0.000000   0.252985   5.240805   0.000000
     34      1      1   0.000000   1.249946   4.690515   0.000000
     56      1      1   0.000000   3.617403   4.943563   0.000000
     31      1      1   0.000000   4.710980   4.874980   0.000000

Bond Coeffs # ['bondID', 'bondCoeff', 'd']

      1   0.814990   1.107704
      2   0.616592   1.273506
      3   0.755364   1.150593
      4   1.071130   0.966226
      5   0.555836   1.341302
      6   0.625991   1.263910
      7   0.664264   1.226958
      8   0.947641   1.027255
      9   0.832906   1.095726
     10   0.617784   1.272277
     11   1.054890   0.973635
     12   0.597500   1.293692
     13   0.837731   1.092566
     14   0.911488   1.047429
     15   0.732753   1.168211
     16   0.828009   1.098962
     17   0.587763   1.304364
     18   0.547880   1.351006
     19   0.601356   1.289538
     20   1.157789   0.929363
     21   1.091865   0.957008
     22   0.784313   1.129160
     23   0.821810   1.103098
     24   1.330884   0.866822
     25   0.570847   1.323550
     26   0.722332   1.176608
     27   0.674463   1.217646
     28   0.776727   1.134660
     29   0.423101   1.537368
     30   0.598698   1.292397
     31   0.620280   1.269714
     32   0.498826   1.415877
     33   0.526885   1.377659
     34   0.502174   1.411149
     35   0.889892   1.060062
     36   0.820471   1.103998
     37   1.080578   0.961993
     38   1.158307   0.929155
     39   1.086331   0.959442
     40   0.860925   1.077748
     41   0.739181   1.163120
     42   0.756711   1.149568
     43   0.762050   1.145535
     44   0.610849   1.279479
     45   0.872968   1.070289
     46   0.712644   1.184578
     47   0.613157   1.277068
     48   0.632513   1.257376
     49   0.476802   1.448208
     50   0.598972   1.292102
     51   0.424920   1.534074
     52   0.562489   1.333346
     53   0.530610   1.372816
     54   0.740313   1.162230
     55   0.692330   1.201831
     56   1.084847   0.960098
     57   0.566705   1.328377
     58   0.486781   1.433287
     59   0.790059   1.125046
     60   1.161284   0.927963
     61   0.555464   1.341752
     62   0.673214   1.218775
     63   0.601940   1.288913
     64   0.971731   1.014442
     65   0.581864   1.310960
     66   0.898030   1.055248
     67   0.716206   1.181629
     68   0.929141   1.037431
     69   0.886327   1.062192
     70   0.573120   1.320922
     71   0.523243   1.382447
     72   0.483739   1.437786
     73   0.496682   1.418930
     74   0.702654   1.192969
     75   0.876731   1.067989
     76   0.798207   1.119289
     77   1.357507   0.858280
     78   0.922957   1.040901
     79   0.752251   1.152971
     80   0.463220   1.469286
     81   0.706694   1.189555
     82   0.763309   1.144589
     83   0.624998   1.264913
     84   0.410077   1.561592
     85   0.636758   1.253178
     86   0.832208   1.096185
     87   0.841692   1.089992
     88   0.902289   1.052755
     89   0.873449   1.069993
     90   1.104214   0.951642
     91   0.850615   1.084260
     92   1.031803   0.984468
     93   1.069213   0.967092
     94   0.396064   1.588976
     95   0.565296   1.330032
     96   0.820289   1.104121
     97   0.672966   1.218999
     98   0.643223   1.246864
     99   0.433597   1.518647
    100   0.516390   1.391590
    101   0.712542   1.184662
    102   0.676354   1.215942
    103   1.083039   0.960899
    104   0.673002   1.218967
    105   0.483067   1.438786
    106   0.617860   1.272199
    107   1.142055   0.935743
    108   0.507629   1.403546
    109   0.706085   1.190067
    110   0.970358   1.015159
    111   0.581182   1.311728
    112   0.915515   1.045122
    113   0.584225   1.308308
    114   1.072336   0.965683
    115   0.636079   1.253847
    116   0.619375   1.270642
    117   0.623810   1.266117
    118   1.131044   0.940287
    119   0.961997   1.019561
    120   0.499224   1.415313
    121   0.737604   1.164363
    122   0.750033   1.154675
    123   0.798936   1.118778
    124   0.561882   1.334066
    125   0.843213   1.089009
    126   0.846077   1.087164
    127   0.418026   1.546672
    128   0.773253   1.137206
    129   1.669218   0.774005
    130   0.535578   1.366434
    131   1.010922   0.994583
    132   0.752009   1.153157
    133   0.803870   1.115339
    134   0.612064   1.278208
    135   0.826095   1.100234
    136   0.484039   1.437341
    137   0.861310   1.077507
    138   0.523297   1.382374
    139   0.865566   1.074855
    140   0.419088   1.544711
    141   1.196274   0.914292
    142   0.774594   1.136221
    143   0.796353   1.120591
    144   0.547718   1.351206
    145   0.612623   1.277625
    146   0.615859   1.274264
    147   0.862735   1.076617
    148   0.853960   1.082135
    149   0.727437   1.172472
    150   0.450142   1.490477
    151   0.578070   1.315254
    152   0.659098   1.231757
    153   1.132310   0.939761
    154   0.628101   1.261785
    155   0.722134   1.176769
    156   0.725180   1.174295
    157   0.593009   1.298582
    158   0.917534   1.043972
    159   1.031490   0.984617
    160   0.900930   1.053548
    161   0.721939   1.176928
    162   0.935540   1.033877
    163   0.755122   1.150778
    164   0.697264   1.197572
    165   0.813170   1.108944
    166   1.067434   0.967898
    167   0.634136   1.255766
    168   0.502732   1.410366
    169   0.843822   1.088616
    170   0.502278   1.411003
    171   0.704365   1.191519
    172   0.876235   1.068291
    173   0.426478   1.531269
    174   0.657892   1.232885
    175   0.603117   1.287654
    176   0.472212   1.455229
    177   0.500520   1.413479
    178   0.777880   1.133819
    179   0.863426   1.076186
    180   0.896405   1.056204
    181   0.486941   1.433052
    182   0.726390   1.173317
    183   0.490879   1.427291
    184   0.507920   1.403144
    185   0.528975   1.374935
    186   0.762439   1.145242
    187   1.021841   0.989255
    188   0.910665   1.047902
    189   0.940365   1.031221
    190   0.719857   1.178628
    191   0.967782   1.016509
    192   0.575990   1.317627
    193   0.849347   1.085069
    194   0.860130   1.078246
    195   0.892608   1.058448
    196   0.853076   1.082695
    197   0.702170   1.193380
    198   1.076065   0.964008
    199   0.511078   1.398802
    200   0.763245   1.144637
    201   0.733890   1.167305
    202   1.115975   0.946614
    203   0.720571   1.178044
    204   1.242539   0.897108
    205   0.925418   1.039515
    206   1.332160   0.866407
    207   0.848124   1.085851
    208   0.766489   1.142213
    209   0.451208   1.488715
    210   0.547033   1.352051
    211   0.771159   1.138749
    212   1.264400   0.889319
    213   0.855404   1.081221
    214   0.866560   1.074239
    215   1.169203   0.924816
    216   1.269587   0.887501
    217   0.870296   1.071930
    218   0.711946   1.185158
    219   0.465416   1.465816
    220   0.721147   1.177573
    221   1.159809   0.928553
    222   0.970568   1.015049
    223   0.471400   1.456482
    224   0.770137   1.139504
    225   0.896433   1.056188
    226   0.523862   1.381629
    227   0.710319   1.186515
    228   0.848115   1.085857
    229   0.854736   1.081643
    230   0.704290   1.191582
    231   0.541881   1.358464
    232   0.635457   1.254461
    233   0.547726   1.351196
    234   1.583813   0.794599
    235   0.892156   1.058716
    236   0.478427   1.445747
    237   0.534783   1.367450
    238   0.823971   1.101651
    239   0.794266   1.122063
    240   0.886932   1.061829
    241   0.714779   1.182808
    242   0.641037   1.248989
    243   0.689517   1.204280
    244   0.609053   1.281364
    245   0.760333   1.146827
    246   0.614061   1.276128
    247   0.811394   1.110157
    248   0.591582   1.300147
    249   0.906843   1.050108
    250   0.514046   1.394758
    251   0.577963   1.315376
    252   0.856207   1.080714
    253   0.684303   1.208859
    254   0.860992   1.077706
    255   0.633882   1.256017
    256   0.466124   1.464701
    257   0.738182   1.163907
    258   0.463501   1.468840
    259   0.899192   1.054566
    260   1.038732   0.981179
    261   0.950503   1.025707
    262   0.538557   1.362650
    263   0.600831   1.290101
    264   0.799309   1.118517
    265   0.991440   1.004308
    266   0.786332   1.127709
    267   0.569039   1.325651
    268   0.766820   1.141966
    269   0.881447   1.065128
    270   0.689991   1.203866
    271   0.591804   1.299904
    272   0.612938   1.277296
    273   0.530191   1.373358
    274   0.739052   1.163221
    275   0.708430   1.188096
    276   0.805132   1.114465
    277   0.667378   1.224092
    278   0.811657   1.109977
    279   0.589488   1.302454
    280   0.717859   1.180267
    281   0.499237   1.415294
    282   1.085917   0.959625
    283   0.879631   1.066227
    284   1.480846   0.821760
    285   0.838756   1.091898
    286   0.554666   1.342717

Bonds # ['ID', 'type', 'atom1', 'atom2']

         1         1        88        27
         2         2        59         2
         3         3        93         2
         4         4        67        84
         5         5        26         3
         6         6        18        51
         7         7         2        52
         8         8        94        56
         9         9        56        31
        10        10        42        48
        11        11        93        53
        12        12        49        24
        13        13        40        77
        14        14        85        23
        15        15        69        11
        16        16        59        53
        17        17        72         3
        18        18        59        24
        19        19        39        58
        20        20        74        78
        21        21        73        97
        22        22        65        37
        23        23        55        62
        24        24        99        80
        25        25        19        49
        26        26         7        60
        27        27        99        14
        28        28        86         8
        29        29        15         5
        30        30        47        49
        31        31        10        62
        32        32         7         1
        33        33        16        32
        34        34        14         3
        35        35        97        34
        36        36        69        39
        37        37        35        90
        38        38        94        66
        39        39        87        67
        40        40        89        29
        41        41        45        56
        42        42        88        24
        43        43        60        41
        44        44        84        10
        45        45        94        54
        46        46        90        19
        47        47        45        31
        48        48        59        27
        49        49         1         8
        50        50        55        42
        51        51         7        18
        52        52        73         2
        53        53        27        36
        54        54         1        86
        55        55        60        18
        56        56        80        52
        57        57        19        31
        58        58        46         7
        59        59        32        71
        60        60        57        91
        61        61        17        11
        62        62        58        49
        63        63        48         4
        64        64        70        94
        65        65        17        45
        66        66        36        84
        67        67        30        64
        68        68        66        31
        69        69        83        67
        70        70        39        16
        71        71         6        45
        72        72        10        29
        73        73         9        13
        74        74         8        57
        75        75        29        77
        76        76        75        63
        77        77        87        95
        78        78        20        97
        79        79        99        26
        80        80        42         4
        81        81         3        61
        82        82        78         4
        83        83        15        69
        84        84         4         5
        85        85        20        73
        86        86        33        61
        87        87        71        44
        88        88        28        70
        89        89        79        29
        90        90        43        87
        91        91        41        51
        92        92        75        78
        93        93        98        72
        94        94         7        21
        95        95        12        46
        96        96        26        68
        97        97        89        15
        98        98        61        21
        99        99         8        23
       100       100        28        14
       101       101        27        53
       102       102        22        30
       103       103        64        75
       104       104        37         9
       105       105        15        25
       106       106        39        32
       107       107        96        85
       108       108        18        20
       109       109        51        20
       110       110        95        27
       111       111        44         2
       112       112        95        36
       113       113        16        51
       114       114        93        52
       115       115        71         2
       116       116        35        22
       117       117        23        45
       118       118        55        84
       119       119        68       100
       120       120        32        24
       121       121        28        34
       122       122        74        13
       123       123        87        36
       124       124        21        37
       125       125        53        68
       126       126        80        28
       127       127        25        16
       128       128        86        20
       129       129        97        92
       130       130        12        10
       131       131        59        93
       132       132        72        50
       133       133        43        67
       134       134         9        57
       135       135        98        14
       136       136        11        19
       137       137        50        65
       138       138        28         6
       139       139        63        37
       140       140        21         9
       141       141        81        83
       142       142        15        82
       143       143        72        54
       144       144        10        46
       145       145        71        24
       146       146        48        38
       147       147        92        34
       148       148        40        60
       149       149         8        96
       150       150         4        13
       151       151        10        40
       152       152        40        29
       153       153        96        92
       154       154        58        19
       155       155         6        56
       156       156        58        32
       157       157        38         5
       158       158        83        64
       159       159        76        61
       160       160        51        44
       161       161        27        68
       162       162        79        38
       163       163        18        86
       164       164         5        82
       165       165        42        78
       166       166        86        96
       167       167        27        12
       168       168        41        18
       169       169        90        47
       170       170         4        38
       171       171        57        23
       172       172        69        58
       173       173        23         6
       174       174        75        42
       175       175        22        64
       176       176         5        17
       177       177        23        17
       178       178        90        43
       179       179        20        96
       180       180       100        46
       181       181         9         8
       182       182        48        62
       183       183        15        39
       184       184        35        19
       185       185        65        21
       186       186        80        34
       187       187        83        55
       188       188        84        62
       189       189        61        65
       190       190        32        49
       191       191        35        66
       192       192        38        15
       193       193        30        75
       194       194        47        87
       195       195        63        78
       196       196        13        91
       197       197        89        25
       198       198        82        69
       199       199        11        58
       200       200        94        31
       201       201         8        85
       202       202        76       100
       203       203        81        22
       204       204        88        59
       205       205        48        79
       206       206        79        89
       207       207        91        17
       208       208        53        26
       209       209        24         2
       210       210        14        72
       211       211        52        34
       212       212        93        99
       213       213        12       100
       214       214        77        41
       215       215        98        54
       216       216        96        97
       217       217        90        49
       218       218        55        48
       219       219        13         5
       220       220        91         5
       221       221        98        70
       222       222        50        63
       223       223         1        18
       224       224        77        25
       225       225        99        53
       226       226        21         1
       227       227        28        98
       228       228        82        17
       229       229        38        89
       230       230        13        57
       231       231        26        14
       232       232        73        34
       233       233         3        50
       234       234        85        92
       235       235        26        76
       236       236         1         9
       237       237        41        16
       238       238        70        54
       239       239        46        40
       240       240        77        60
       241       241        66        22
       242       242        50        30
       243       243        46        33
       244       244        66        19
       245       245        54        30
       246       246        85         6
       247       247        83        42
       248       248        47        24
       249       249        63        74
       250       250        25        39
       251       251        47        43
       252       252        35        43
       253       253        54        22
       254       254        68        76
       255       255         3        65
       256       256        11        45
       257       257        44        73
       258       258         6        34
       259       259        81        64
       260       260        62        79
       261       261        81        43
       262       262        33        21
       263       263        62        29
       264       264        37        74
       265       265       100        33
       266       266        35        81
       267       267        25        41
       268       268        80        14
       269       269        67        55
       270       270        16        71
       271       271        67        36
       272       272        33         7
       273       273        20        44
       274       274        64        42
       275       275        72        30
       276       276        92         6
       277       277        36        12
       278       278        47        95
       279       279        74         4
       280       280        12        68
       281       281        16        44
       282       282        70        56
       283       283        73        52
       284       284        88        95
       285       285        47        88
       286       286        11        31

Angle Coeffs # ['angleID', 'energy', 'value (deg)']

    614   0.010000 111.022253
    291   0.010000  55.440872
   1033   0.010000 105.503632
    115   0.010000 175.965071
    369   0.010000  53.376384
   1367   0.010000 126.038363
    740   0.010000 132.559196
   1081   0.010000 100.579370
     20   0.010000  72.546286
    448   0.010000  60.104999
    431   0.010000 114.891631
   1189   0.010000 118.384941
    777   0.010000 147.768197
    936   0.010000  59.909880
   1241   0.010000 165.520455
   1184   0.010000 178.672504
   1301   0.010000  52.501718
    845   0.010000  50.539712
    893   0.010000 103.048401
    697   0.010000  63.387106
     27   0.010000  55.314469
    256   0.010000  52.830996
    560   0.010000 105.966184
     41   0.010000  46.158006
    411   0.010000  59.125844
    712   0.010000 157.114947
    646   0.010000  54.379017
    640   0.010000 138.746795
    855   0.010000  50.986636
    914   0.010000 148.486723
    474   0.010000  65.242009
    192   0.010000  66.921581
   1321   0.010000 106.053936
     58   0.010000  59.092990
   1345   0.010000 150.301385
    822   0.010000  57.850661
   1310   0.010000  52.203533
    213   0.010000 142.694222
    884   0.010000 159.493445
    773   0.010000  86.502358
    706   0.010000  54.463570
    661   0.010000 144.681059
    200   0.010000  71.229999
    912   0.010000 117.615558
    229   0.010000 123.663510
   1178   0.010000 132.077077
    511   0.010000 109.395785
    677   0.010000  57.167762
    484   0.010000 159.180113
    120   0.010000 131.121795
    386   0.010000 111.906694
   1186   0.010000 113.427320
    506   0.010000 165.895570
    590   0.010000 133.336655
    933   0.010000 129.940534
    197   0.010000  73.322014
    535   0.010000  70.290046
     53   0.010000  81.606009
    690   0.010000 133.327073
    732   0.010000  60.117586
   1040   0.010000 101.307489
     69   0.010000 176.338565
    247   0.010000 170.067428
   1362   0.010000 133.940964
   1247   0.010000  56.191612
    928   0.010000  47.146752
    898   0.010000  51.724926
    384   0.010000  58.041650
   1022   0.010000 143.077343
    323   0.010000  62.438865
    261   0.010000  95.786940
   1010   0.010000 158.999369
    615   0.010000  54.164147
    988   0.010000 165.181588
   1251   0.010000 166.758362
    555   0.010000  77.879626
    754   0.010000 113.585323
    586   0.010000  55.769663
    436   0.010000 118.615734
    215   0.010000 104.447942
    300   0.010000 132.019708
   1047   0.010000  49.534764
   1200   0.010000  69.908577
   1264   0.010000  91.015407