LAMMPS data file.

    400 atoms
   1158 bonds
   5937 angles
      0 dihedrals
      0 impropers
      1 atom types
   1158 bond types
   5937 angle types
      0 dihedral types
      0 improper types
 -11.076989  11.076989 xlo xhi
 -11.076989  11.076989 ylo yhi
  -0.100000   0.100000 zlo zhi
0.0 0.0 0.0 xy xz yz

Masses # ['atom_id', 'mass']

1 1.0

Atoms # ['atomID', 'moleculeID', 'atomType', 'charge', 'x', 'y', 'z']

    127      1      1   0.000000 -10.232703 -10.409225   0.000000
    200      1      1   0.000000  -8.867487 -10.373123   0.000000
    220      1      1   0.000000  -7.728509 -10.207056   0.000000
    344      1      1   0.000000  -7.277536 -10.834605   0.000000
    118      1      1   0.000000  -6.543936 -10.246452   0.000000
    314      1      1   0.000000  -5.809576 -10.890518   0.000000
    199      1      1   0.000000  -5.232149 -10.075759   0.000000
    185      1      1   0.000000  -3.367007 -10.787421   0.000000
    218      1      1   0.000000  -4.069216  -9.917789   0.000000
    374      1      1   0.000000  -1.108266 -10.731567   0.000000
    304      1      1   0.000000  -0.640103 -10.590586   0.000000
    394      1      1   0.000000  -0.097954 -10.710629   0.000000
    235      1      1   0.000000  -0.242180  -9.961608   0.000000
    266      1      1   0.000000   0.597240 -10.266356   0.000000
    336      1      1   0.000000   1.124262 -10.755202   0.000000
     74      1      1   0.000000   1.984402 -10.133907   0.000000
    388      1      1   0.000000   2.820303 -10.969625   0.000000
    112      1      1   0.000000   3.518853 -10.480883   0.000000
     58      1      1   0.000000   4.971665 -10.014410   0.000000
    136      1      1   0.000000   6.402770  -9.851084   0.000000
    333      1      1   0.000000   6.503059 -10.817542   0.000000
    111      1      1   0.000000   7.459932 -10.780448   0.000000
    274      1      1   0.000000   8.621782 -10.935465   0.000000
    305      1      1   0.000000   9.125809 -10.348762   0.000000
    169      1      1   0.000000   9.812216 -11.009045   0.000000
    212      1      1   0.000000  10.802363 -10.443259   0.000000
    317      1      1   0.000000 -10.602786  -9.559964   0.000000
    290      1      1   0.000000 -11.004194  -8.954723   0.000000
    320      1      1   0.000000  11.042094  -9.721946   0.000000
     18      1      1   0.000000  -9.594698  -9.068672   0.000000
    249      1      1   0.000000  -8.332868  -9.355111   0.000000
     80      1      1   0.000000  -7.160511  -8.949657   0.000000
    276      1      1   0.000000  -5.926000  -9.220540   0.000000
     13      1      1   0.000000  -4.698243  -8.735682   0.000000
    400      1      1   0.000000  -3.737416  -9.180240   0.000000
     32      1      1   0.000000  -2.739408  -9.504154   0.000000
    120      1      1   0.000000  -1.392519  -9.833921   0.000000
    318      1      1   0.000000   0.404099  -9.499128   0.000000
    303      1      1   0.000000   0.954818  -9.678081   0.000000
    311      1      1   0.000000   2.989027  -9.707365   0.000000
    332      1      1   0.000000   3.462959  -9.474328   0.000000
    301      1      1   0.000000   3.931658  -9.677499   0.000000
    282      1      1   0.000000   5.597563  -8.901781   0.000000
    391      1      1   0.000000   7.376541  -9.833472   0.000000
    124      1      1   0.000000   7.353474  -8.884775   0.000000
    132      1      1   0.000000   8.370395  -9.778451   0.000000
     48      1      1   0.000000   9.898703  -9.532484   0.000000
     73      1      1   0.000000 -10.426608  -7.770627   0.000000
    383      1      1   0.000000  -9.313058  -8.002614   0.000000
    195      1      1   0.000000  -8.342843  -8.121575   0.000000
    232      1      1   0.000000  -5.956934  -8.276289   0.000000
    331      1      1   0.000000  -3.509393  -8.651391   0.000000
    263      1      1   0.000000  -2.729252  -8.251877   0.000000
    359      1      1   0.000000  -2.072634  -7.900699   0.000000
    272      1      1   0.000000  -1.750636  -8.594489   0.000000
     65      1      1   0.000000  -0.482715  -8.745704   0.000000
     60      1      1   0.000000   1.119573  -8.646849   0.000000
    350      1      1   0.000000   1.015088  -7.610460   0.000000
     92      1      1   0.000000   2.688294  -8.675403   0.000000
    399      1      1   0.000000   1.944764  -7.895870   0.000000
    324      1      1   0.000000   3.085801  -7.783357   0.000000
    230      1      1   0.000000   3.708597  -7.561178   0.000000
     20      1      1   0.000000   4.268358  -8.685435   0.000000
    168      1      1   0.000000   6.283951  -8.092968   0.000000
     78      1      1   0.000000   8.806598  -8.357813   0.000000
    138      1      1   0.000000  10.291386  -8.152167   0.000000
    239      1      1   0.000000 -10.345449  -6.448617   0.000000
    122      1      1   0.000000  -9.197436  -7.050027   0.000000
    202      1      1   0.000000  -8.006841  -6.986985   0.000000
     89      1      1   0.000000  -6.885584  -7.398502   0.000000
    192      1      1   0.000000  -5.301102  -7.355917   0.000000
      9      1      1   0.000000  -3.762802  -7.542257   0.000000
    265      1      1   0.000000  -2.469323  -7.240759   0.000000
    180      1      1   0.000000  -1.262288  -7.421919   0.000000
    128      1      1   0.000000   0.049447  -7.491838   0.000000
    368      1      1   0.000000   1.546502  -7.543307   0.000000
    113      1      1   0.000000   0.997131  -6.704473   0.000000
     87      1      1   0.000000   2.476272  -6.946649   0.000000
    178      1      1   0.000000   3.873565  -6.431558   0.000000
     96      1      1   0.000000   5.015582  -7.418175   0.000000
    148      1      1   0.000000   6.226872  -6.681586   0.000000
     86      1      1   0.000000   7.522205  -7.419928   0.000000
    247      1      1   0.000000   8.739459  -7.013580   0.000000
    338      1      1   0.000000   8.171667  -6.540125   0.000000
    292      1      1   0.000000   9.614263  -7.241066   0.000000
    321      1      1   0.000000   9.356160  -6.513498   0.000000
    165      1      1   0.000000  10.677700  -6.864727   0.000000
    328      1      1   0.000000 -11.030071  -6.038695   0.000000
    160      1      1   0.000000  -9.433901  -5.796989   0.000000
    291      1      1   0.000000  -8.370537  -6.187298   0.000000
    205      1      1   0.000000  -7.373917  -6.085282   0.000000
     84      1      1   0.000000  -6.041685  -6.095069   0.000000
     25      1      1   0.000000  -4.416832  -6.132127   0.000000
    275      1      1   0.000000  -3.091650  -6.429610   0.000000
     45      1      1   0.000000  -1.829803  -6.074798   0.000000
    189      1      1   0.000000  -0.372243  -6.227209   0.000000
    392      1      1   0.000000   0.590166  -5.908066   0.000000
     40      1      1   0.000000   1.730115  -5.540209   0.000000
    280      1      1   0.000000   2.985249  -5.719329   0.000000
    119      1      1   0.000000   5.068051  -5.931894   0.000000
    213      1      1   0.000000   6.110708  -5.480336   0.000000
     44      1      1   0.000000   7.382567  -5.801193   0.000000
    365      1      1   0.000000   8.411137  -5.293126   0.000000
    203      1      1   0.000000   8.716402  -6.009555   0.000000
    393      1      1   0.000000   8.946398  -5.305544   0.000000
     33      1      1   0.000000  10.029252  -5.653685   0.000000
    173      1      1   0.000000 -10.679759  -5.204102   0.000000
     31      1      1   0.000000  -9.363012  -4.431429   0.000000
    106      1      1   0.000000  -8.160334  -5.139917   0.000000
     21      1      1   0.000000  -6.800527  -4.775435   0.000000
    143      1      1   0.000000  -5.239972  -4.878114   0.000000
    326      1      1   0.000000  -4.265895  -5.065875   0.000000
    217      1      1   0.000000  -4.232986  -4.343064   0.000000
      4      1      1   0.000000  -3.124747  -5.115276   0.000000
    355      1      1   0.000000  -2.009304  -4.958590   0.000000
      8      1      1   0.000000  -0.907756  -4.731037   0.000000
    179      1      1   0.000000   0.402417  -5.030857   0.000000
    125      1      1   0.000000   1.435745  -4.175016   0.000000
    186      1      1   0.000000   2.813243  -4.552911   0.000000
    298      1      1   0.000000   3.818051  -5.248297   0.000000
    248      1      1   0.000000   3.881203  -4.210955   0.000000
    246      1      1   0.000000   4.665027  -4.903501   0.000000
    370      1      1   0.000000   5.458169  -5.036660   0.000000
    357      1      1   0.000000   5.360352  -4.529681   0.000000
    342      1      1   0.000000   5.867753  -4.693643   0.000000
    207      1      1   0.000000   6.623928  -4.680416   0.000000
     59      1      1   0.000000   7.832716  -4.354454   0.000000
    152      1      1   0.000000   9.219398  -4.448492   0.000000
    166      1      1   0.000000  10.472008  -4.173897   0.000000
    251      1      1   0.000000 -10.631366  -4.039965   0.000000
    322      1      1   0.000000 -10.333984  -3.336870   0.000000
    313      1      1   0.000000 -10.022335  -3.634215   0.000000
     42      1      1   0.000000  -7.937171  -3.617898   0.000000
    395      1      1   0.000000  -6.859277  -3.592580   0.000000
     93      1      1   0.000000  -5.776167  -3.567460   0.000000
    135      1      1   0.000000  -4.404319  -3.250181   0.000000
    294      1      1   0.000000  -3.352547  -3.866391   0.000000
    378      1      1   0.000000  -3.535989  -3.094855   0.000000
    283      1      1   0.000000  -2.860567  -3.026266   0.000000
    196      1      1   0.000000  -2.133592  -3.982212   0.000000
     70      1      1   0.000000  -0.792465  -3.086329   0.000000
    278      1      1   0.000000   0.243199  -3.885318   0.000000
    329      1      1   0.000000   0.249824  -3.097882   0.000000
    260      1      1   0.000000   0.963664  -3.159544   0.000000
    348      1      1   0.000000   1.693102  -3.257934   0.000000
    271      1      1   0.000000   2.353311  -3.515012   0.000000
    289      1      1   0.000000   3.293612  -3.435485   0.000000
    201      1      1   0.000000   4.808850  -4.027223   0.000000
    109      1      1   0.000000   4.382686  -3.046283   0.000000
     72      1      1   0.000000   5.930793  -3.541433   0.000000
    380      1      1   0.000000   6.896782  -3.920300   0.000000
    377      1      1   0.000000   7.107394  -3.396477   0.000000
    176      1      1   0.000000   8.031955  -3.013842   0.000000
    389      1      1   0.000000   8.710951  -3.669427   0.000000
     47      1      1   0.000000   9.520958  -2.947998   0.000000
    360      1      1   0.000000 -10.131905  -2.157757   0.000000
     49      1      1   0.000000  -9.349913  -2.842572   0.000000
    187      1      1   0.000000  -8.143247  -2.155699   0.000000
    190      1      1   0.000000  -6.828575  -2.561066   0.000000
      7      1      1   0.000000  -5.333303  -2.040085   0.000000
     51      1      1   0.000000  -3.660038  -1.973631   0.000000
    250      1      1   0.000000  -2.020370  -2.860416   0.000000
    337      1      1   0.000000  -2.600074  -2.272303   0.000000
    130      1      1   0.000000  -1.734293  -1.870109   0.000000
    286      1      1   0.000000  -0.575291  -1.779658   0.000000
    182      1      1   0.000000   0.511404  -2.129587   0.000000
    323      1      1   0.000000   2.662104  -2.912172   0.000000
    184      1      1   0.000000   1.877444  -2.352379   0.000000
    163      1      1   0.000000   3.261015  -2.270376   0.000000
    226      1      1   0.000000   4.329826  -1.866012   0.000000
    145      1      1   0.000000   5.390727  -2.165506   0.000000
     71      1      1   0.000000   6.856195  -2.273557   0.000000
     46      1      1   0.000000   8.440553  -1.698066   0.000000
    362      1      1   0.000000   9.615205  -1.818730   0.000000
     39      1      1   0.000000  11.056661  -2.730085   0.000000
    397      1      1   0.000000  10.122126  -2.040342   0.000000
    273      1      1   0.000000 -10.453400  -1.540613   0.000000
    102      1      1   0.000000  -9.356187  -1.425968   0.000000
    296      1      1   0.000000  -8.330693  -0.987877   0.000000
    198      1      1   0.000000  -7.243003  -1.241883   0.000000
    372      1      1   0.000000  -6.388162  -1.696956   0.000000
    214      1      1   0.000000  -6.101495  -0.959844   0.000000
    349      1      1   0.000000  -4.473920  -1.296782   0.000000
    257      1      1   0.000000  -3.961918  -0.668534   0.000000
     36      1      1   0.000000  -2.630215  -0.763837   0.000000
    105      1      1   0.000000  -1.149824  -0.752244   0.000000
     27      1      1   0.000000   0.184133  -0.678346   0.000000
    175      1      1   0.000000   1.500654  -1.088600   0.000000
    254      1      1   0.000000   2.546908  -1.327471   0.000000
    144      1      1   0.000000   3.613777  -1.012523   0.000000
    104      1      1   0.000000   4.922291  -0.835974   0.000000
    255      1      1   0.000000   6.014974  -1.244798   0.000000
     54      1      1   0.000000   7.192273  -0.736989   0.000000
    133      1      1   0.000000   9.457288  -0.857521   0.000000
    108      1      1   0.000000  10.665021  -1.298134   0.000000
     14      1      1   0.000000 -10.342362  -0.243395   0.000000
    209      1      1   0.000000  -9.052384  -0.310020   0.000000
    140      1      1   0.000000  -7.977593   0.071804   0.000000
    236      1      1   0.000000  -6.829328  -0.287240   0.000000
    223      1      1   0.000000  -5.901964   0.072307   0.000000
    334      1      1   0.000000  -5.138218   0.393737   0.000000
    103      1      1   0.000000  -5.040681  -0.577495   0.000000
    386      1      1   0.000000  -4.414958   0.072683   0.000000
    306      1      1   0.000000  -3.910072   0.161755   0.000000
    361      1      1   0.000000  -3.507657  -0.124520   0.000000
     24      1      1   0.000000  -1.553267   0.530743   0.000000
    319      1      1   0.000000  -0.462019   0.262663   0.000000
    227      1      1   0.000000   1.351374   0.047787   0.000000
    100      1      1   0.000000   2.614520   0.050406   0.000000
    211      1      1   0.000000   4.014600  -0.024571   0.000000
    237      1      1   0.000000   5.928049  -0.262596   0.000000
    101      1      1   0.000000   6.669303   0.590457   0.000000
    225      1      1   0.000000   7.838268   0.350688   0.000000
    229      1      1   0.000000   8.486503  -0.312170   0.000000
     11      1      1   0.000000  10.316439   0.140801   0.000000
    379      1      1   0.000000 -10.835117   0.750793   0.000000
    364      1      1   0.000000 -10.429390   1.081283   0.000000
     99      1      1   0.000000  -9.267557   0.975618   0.000000
    126      1      1   0.000000  -7.967170   1.456363   0.000000
    131      1      1   0.000000  -6.866219   0.735111   0.000000
    194      1      1   0.000000  -5.683052   1.220002   0.000000
    150      1      1   0.000000  -4.356178   1.032955   0.000000
    191      1      1   0.000000  -3.024640   0.646533   0.000000
    299      1      1   0.000000  -2.192689   1.532381   0.000000
    297      1      1   0.000000  -0.502596   1.133582   0.000000
    117      1      1   0.000000   0.442289   0.694878   0.000000
    183      1      1   0.000000   1.596162   1.223451   0.000000
    159      1      1   0.000000   2.822964   1.553447   0.000000
    277      1      1   0.000000   3.704712   0.832592   0.000000
     28      1      1   0.000000   5.047169   0.703409   0.000000
    268      1      1   0.000000   4.050966   1.716533   0.000000
    287      1      1   0.000000   6.131175   1.449970   0.000000
    396      1      1   0.000000   6.944305   1.569952   0.000000
    284      1      1   0.000000   7.631149   1.248371   0.000000
     68      1      1   0.000000   8.964914   0.976436   0.000000
     38      1      1   0.000000  10.599349   1.564720   0.000000
      6      1      1   0.000000 -10.149957   2.189134   0.000000
     43      1      1   0.000000  -8.675711   2.754853   0.000000
    245      1      1   0.000000  -7.365310   2.372729   0.000000
    262      1      1   0.000000  -6.746595   1.757911   0.000000
    155      1      1   0.000000  -6.061026   2.613131   0.000000
    224      1      1   0.000000  -5.025452   2.065805   0.000000
    228      1      1   0.000000  -4.196445   2.290511   0.000000
    142      1      1   0.000000  -3.296606   1.880709   0.000000
    193      1      1   0.000000  -2.312901   2.630535   0.000000
    121      1      1   0.000000  -1.122359   2.054879   0.000000
    309      1      1   0.000000  -1.445170   2.972637   0.000000
     22      1      1   0.000000   0.372061   2.174976   0.000000
     95      1      1   0.000000   1.773152   2.743290   0.000000
     90      1      1   0.000000   3.304849   2.875928   0.000000
    352      1      1   0.000000   4.244071   2.482488   0.000000
     79      1      1   0.000000   5.248133   2.287569   0.000000
    300      1      1   0.000000   6.618715   2.244357   0.000000
    367      1      1   0.000000   7.019972   2.806108   0.000000
     19      1      1   0.000000   7.996345   2.410222   0.000000
    170      1      1   0.000000   9.423004   2.399285   0.000000
    373      1      1   0.000000  10.981583   2.657126   0.000000
    339      1      1   0.000000  10.417593   2.598189   0.000000
    234      1      1   0.000000 -10.665613   3.284989   0.000000
    264      1      1   0.000000  -9.776245   3.538751   0.000000
    315      1      1   0.000000  -9.085149   3.815752   0.000000
     35      1      1   0.000000  -7.223152   3.524578   0.000000
    137      1      1   0.000000  -5.785027   3.965655   0.000000
    129      1      1   0.000000  -4.800879   3.215248   0.000000
    177      1      1   0.000000  -3.462320   3.269447   0.000000
     76      1      1   0.000000  -2.036305   3.944926   0.000000
     66      1      1   0.000000  -0.512932   3.456049   0.000000
    343      1      1   0.000000   0.680039   3.321733   0.000000
    346      1      1   0.000000   1.175977   3.649559   0.000000
    310      1      1   0.000000   2.570933   3.594512   0.000000
    376      1      1   0.000000   2.941850   4.049542   0.000000
    353      1      1   0.000000   4.397936   3.040406   0.000000
    261      1      1   0.000000   5.035951   3.502127   0.000000
     63      1      1   0.000000   6.244127   3.531666   0.000000
    347      1      1   0.000000   7.300165   3.199149   0.000000
    123      1      1   0.000000   7.587208   4.019915   0.000000
    157      1      1   0.000000   8.879472   3.637586   0.000000
     52      1      1   0.000000  10.313657   3.594471   0.000000
    253      1      1   0.000000 -10.614935   4.218039   0.000000
      2      1      1   0.000000  -9.498508   4.871343   0.000000
    204      1      1   0.000000  -8.403539   4.106276   0.000000
    325      1      1   0.000000  -7.741982   4.470200   0.000000
    161      1      1   0.000000  -6.849167   4.857287   0.000000
     82      1      1   0.000000  -4.246909   4.573176   0.000000
    387      1      1   0.000000  -3.184075   4.151327   0.000000
    244      1      1   0.000000  -2.961282   4.857868   0.000000
    208      1      1   0.000000  -2.067433   5.132270   0.000000
    162      1      1   0.000000  -0.908494   4.997230   0.000000
     98      1      1   0.000000   0.507923   4.504066   0.000000
    335      1      1   0.000000   1.373358   5.059880   0.000000
    172      1      1   0.000000   1.971925   4.262096   0.000000
      3      1      1   0.000000   3.177304   5.241507   0.000000
     91      1      1   0.000000   4.081275   4.157293   0.000000
    210      1      1   0.000000   5.314781   4.473041   0.000000
     75      1      1   0.000000   6.404661   5.108417   0.000000
    233      1      1   0.000000   7.700848   5.150391   0.000000
    238      1      1   0.000000   8.514642   4.702162   0.000000
      1      1      1   0.000000   9.724466   5.005847   0.000000
    366      1      1   0.000000  10.780302   4.535528   0.000000
    382      1      1   0.000000 -10.155202   5.812526   0.000000
    197      1      1   0.000000 -10.944303   5.330224   0.000000
    307      1      1   0.000000  -8.794754   5.748647   0.000000
    149      1      1   0.000000  -8.050359   5.323913   0.000000
    384      1      1   0.000000  -8.402676   6.228926   0.000000
    363      1      1   0.000000  -7.910706   6.300067   0.000000
     77      1      1   0.000000  -6.850505   6.342258   0.000000
     30      1      1   0.000000  -5.565686   5.367478   0.000000
    153      1      1   0.000000  -4.389884   6.141218   0.000000
    216      1      1   0.000000  -3.417224   5.646088   0.000000
    351      1      1   0.000000  -2.691107   5.623071   0.000000
     57      1      1   0.000000  -1.826909   6.280538   0.000000
    371      1      1   0.000000  -0.051354   5.474235   0.000000
    222      1      1   0.000000  -0.475697   6.128809   0.000000
     26      1      1   0.000000   0.874317   6.099621   0.000000
    267      1      1   0.000000   1.961233   5.432672   0.000000
      5      1      1   0.000000   4.764436   5.682813   0.000000
     83      1      1   0.000000   7.479306   6.341639   0.000000
    215      1      1   0.000000   8.599293   5.673106   0.000000
    316      1      1   0.000000   9.308378   6.087302   0.000000
    356      1      1   0.000000   8.847185   6.328739   0.000000
    139      1      1   0.000000  10.264276   6.293895   0.000000
    164      1      1   0.000000 -10.725073   6.658853   0.000000
     94      1      1   0.000000  -9.399766   6.556105   0.000000
     50      1      1   0.000000  -8.127309   7.402352   0.000000
    231      1      1   0.000000  -5.488267   6.589848   0.000000
    279      1      1   0.000000  -5.975948   7.329376   0.000000
    167      1      1   0.000000  -3.260819   6.808188   0.000000
     97      1      1   0.000000  -0.770389   7.403699   0.000000
    390      1      1   0.000000   0.054558   6.754726   0.000000
    345      1      1   0.000000   1.454511   7.054294   0.000000
     55      1      1   0.000000   2.473505   6.597050   0.000000
    295      1      1   0.000000   3.792788   6.488971   0.000000
    240      1      1   0.000000   4.653832   7.110374   0.000000
     17      1      1   0.000000   5.937381   6.642899   0.000000
    381      1      1   0.000000   8.500666   6.668027   0.000000
    281      1      1   0.000000   8.206446   7.404673   0.000000
    147      1      1   0.000000   9.335914   7.118229   0.000000
     64      1      1   0.000000 -10.146754   8.028185   0.000000
    375      1      1   0.000000  -9.160984   7.628856   0.000000
    302      1      1   0.000000  -8.994276   8.141337   0.000000
    206      1      1   0.000000  -6.928996   7.665825   0.000000
     15      1      1   0.000000  -6.044638   8.553754   0.000000
     34      1      1   0.000000  -4.639833   7.599883   0.000000
    256      1      1   0.000000  -3.474497   7.986991   0.000000
     23      1      1   0.000000  -2.245796   7.836246   0.000000
    354      1      1   0.000000  -1.320527   8.414695   0.000000
    115      1      1   0.000000   0.644468   7.584157   0.000000
    259      1      1   0.000000   0.979417   8.697241   0.000000
     37      1      1   0.000000   2.076168   8.005002   0.000000
    134      1      1   0.000000   3.569215   7.642754   0.000000
     62      1      1   0.000000   5.630261   8.113440   0.000000
    110      1      1   0.000000   7.050872   7.712106   0.000000
    146      1      1   0.000000   8.168176   8.550281   0.000000
    341      1      1   0.000000   8.790121   7.887238   0.000000
    181      1      1   0.000000   9.540035   8.472793   0.000000
    116      1      1   0.000000  10.574052   7.650966   0.000000
    258      1      1   0.000000 -10.337798   9.297792   0.000000
    327      1      1   0.000000 -10.011133   9.895462   0.000000
     88      1      1   0.000000  -9.059095   9.227877   0.000000
     67      1      1   0.000000  -7.546971   8.907015   0.000000
    312      1      1   0.000000  -6.569592   9.592513   0.000000
    398      1      1   0.000000  -7.092131   9.865013   0.000000
    188      1      1   0.000000  -5.578380   9.830478   0.000000
    270      1      1   0.000000  -4.862013   8.859334   0.000000
    269      1      1   0.000000  -4.393421   9.664944   0.000000
    243      1      1   0.000000  -3.919996   8.832038   0.000000
    241      1      1   0.000000  -3.006698   8.876247   0.000000
     56      1      1   0.000000  -1.853765   9.413370   0.000000
     16      1      1   0.000000  -0.311969   8.830051   0.000000
    107      1      1   0.000000   0.674313   9.835457   0.000000
     61      1      1   0.000000   2.028083   9.522114   0.000000
    219      1      1   0.000000   3.125408   8.796708   0.000000
     29      1      1   0.000000   4.370070   8.857036   0.000000
    151      1      1   0.000000   5.746073   9.579965   0.000000
    385      1      1   0.000000   6.634610   9.851905   0.000000
    171      1      1   0.000000   6.947123   9.005057   0.000000
    330      1      1   0.000000   8.940858   9.196256   0.000000
    141      1      1   0.000000   9.723001   9.814755   0.000000
    156      1      1   0.000000  10.786300   8.963727   0.000000
     81      1      1   0.000000 -11.021869  10.437207   0.000000
    114      1      1   0.000000  -9.525551  10.642230   0.000000
     85      1      1   0.000000  -8.046967  10.531844   0.000000
    174      1      1   0.000000  -6.586403  10.616364   0.000000
    340      1      1   0.000000  -5.642075  10.778523   0.000000
     12      1      1   0.000000  -4.575402  10.892683   0.000000
    158      1      1   0.000000  -3.281256   9.993765   0.000000
     69      1      1   0.000000  -2.110363  11.012256   0.000000
     41      1      1   0.000000  -0.638685  10.425690   0.000000
    288      1      1   0.000000   0.495769  10.960170   0.000000
    285      1      1   0.000000   1.431610  10.738893   0.000000
    242      1      1   0.000000   2.325700  10.756309   0.000000
     53      1      1   0.000000   3.445765  10.162979   0.000000
    221      1      1   0.000000   4.746859  10.105757   0.000000
    293      1      1   0.000000   4.434134  10.981783   0.000000
    154      1      1   0.000000   5.617710  10.946425   0.000000
    358      1      1   0.000000   7.131094   9.951440   0.000000
    252      1      1   0.000000   6.589864  10.542812   0.000000
    369      1      1   0.000000   7.287399  10.459171   0.000000
     10      1      1   0.000000   8.209187   9.977685   0.000000
    308      1      1   0.000000   9.088486  10.580614   0.000000

Bond Coeffs # ['bondID', 'bondCoeff', 'd']

      1   0.455452   1.481763
      2   0.421759   1.539812
      3   1.480220   0.821934
      4   0.782759   1.130280
      5   0.710372   1.186471
      6   0.613721   1.276482
      7   0.373129   1.637082
      8   0.400528   1.580096
      9   0.669009   1.222599
     10   1.486638   0.820158
     11   0.423192   1.537204
     12   0.768659   1.140600
     13   0.602201   1.288633
     14   0.512193   1.397279
     15   0.519379   1.387579
     16   0.458612   1.476649
     17   1.845836   0.736043
     18   0.990479   1.004795
     19   1.102206   0.952508
     20   0.568411   1.326382
     21   0.858492   1.079275
     22   0.566897   1.328153
     23   0.736083   1.165565
     24   0.791343   1.124133
     25   0.520070   1.386657
     26   0.419851   1.543308
     27   1.677934   0.771992
     28   1.709324   0.764870
     29   0.703992   1.191835
     30   0.879733   1.066165
     31   0.571471   1.322827
     32   1.803516   0.744629
     33   0.702263   1.193301
     34   1.295718   0.878506
     35   0.428214   1.528163
     36   0.793917   1.122309
     37   0.337921   1.720254
     38   1.783067   0.748887
     39   0.716418   1.181454
     40   0.517358   1.390287
     41   0.356527   1.674764
     42   0.807502   1.112829
     43   1.051674   0.975123
     44   1.196076   0.914367
     45   0.791961   1.123694
     46   0.420570   1.541987
     47   0.654205   1.236355
     48   0.503249   1.409641
     49   0.761232   1.146150
     50   0.939441   1.031728
     51   0.686580   1.206853
     52   0.379960   1.622299
     53   0.855653   1.081063
     54   0.907685   1.049621
     55   0.525300   1.379737
     56   0.413133   1.555806
     57   1.131104   0.940262
     58   0.996632   1.001688
     59   0.543194   1.356821
     60   1.056487   0.972900
     61   0.804143   1.115150
     62   0.537583   1.363883
     63   0.612098   1.278173
     64   0.723282   1.175834
     65   1.052745   0.974627
     66   0.529179   1.374670
     67   0.636218   1.253710
     68   0.414748   1.552773
     69   0.416004   1.550427
     70   0.703487   1.192263
     71   0.449480   1.491575
     72   0.562519   1.333311
     73   1.935276   0.718834
     74   0.618141   1.271910
     75   0.651641   1.238784
     76   0.574960   1.318807
     77   1.738617   0.758400
     78   1.178228   0.921267
     79   0.831973   1.096341
     80   0.865512   1.074889
     81   0.797437   1.119829
     82   1.486008   0.820332
     83   1.598689   0.790893
     84   0.554284   1.343179
     85   0.563399   1.332269
     86   0.429674   1.525564
     87   0.886888   1.061856
     88   1.169082   0.924863
     89   2.982257   0.579065
     90   0.972436   1.014074
     91   0.529274   1.374548
     92   0.661303   1.229702
     93   0.412480   1.557036
     94   0.626020   1.263880
     95   0.366971   1.650760
     96   0.620806   1.269177
     97   0.972684   1.013944
     98   0.613313   1.276906
     99   0.545156   1.354377
    100   0.550420   1.347885
    101   1.600698   0.790397
    102   0.839483   1.091425
    103   0.555485   1.341726
    104   0.985881   1.007135