ITEM: TIMESTEP
908
ITEM: NUMBER OF ATOMS
100
ITEM: BOX BOUNDS xy xz yz pp pp pp
-5.5024745290582393e+00 5.5024745290582393e+00 0.0000000000000000e+00
-5.5029746164961972e+00 5.5029746164961972e+00 0.0000000000000000e+00
-1.0000000000000001e-01 1.0000000000000001e-01 0.0000000000000000e+00
ITEM: ATOMS id x y z vx vy vz
35 -5.13744 -4.56217 -7.43588e-10 -8.56767e-07 1.01541e-06 1.00777e-08
90 -4.28024 -4.99867 -4.98252e-09 -6.56883e-07 -1.60224e-06 -9.417e-09
47 -3.25122 -4.64362 -8.98061e-10 -7.44551e-07 9.40243e-07 -6.54901e-10
88 -2.17062 -4.48758 4.49484e-09 -2.6514e-07 1.43462e-06 1.00385e-08
59 -1.32411 -4.78446 4.5748e-09 1.67163e-07 -7.74683e-07 9.30572e-09
93 -0.357047 -5.01649 -1.19227e-09 6.72692e-07 -1.20378e-06 -1.98265e-10
99 0.415147 -4.57544 4.95083e-10 2.40578e-06 -3.9125e-07 -8.64958e-09
80 1.0237 -5.19266 5.38147e-10 -3.53249e-06 1.09308e-07 -9.74894e-09
28 2.06973 -5.48866 2.96237e-09 -7.87344e-07 -1.9529e-06 -5.24417e-09
98 2.6395 -4.44791 1.40691e-09 -3.63779e-06 2.86572e-07 9.15402e-09
70 3.09643 -5.25626 7.11329e-10 -4.24501e-07 1.07962e-07 2.28721e-09
94 4.10612 -5.15892 6.31408e-09 3.95768e-08 3.71075e-07 -6.04485e-09
66 5.03511 -5.14552 -4.11537e-10 4.36118e-06 7.13569e-08 2.57655e-09
81 -5.24464 -3.43955 2.01249e-10 -2.53789e-06 1.17456e-06 -1.06741e-08
43 -4.31151 -3.86527 2.4431e-09 -9.37996e-07 -2.87358e-06 -5.16315e-10
87 -3.40485 -3.57636 -1.36259e-09 -7.35242e-07 1.50723e-06 8.72049e-09
95 -2.56842 -3.76854 1.21249e-10 1.14065e-06 -8.00486e-07 1.34109e-09
27 -1.57654 -3.55267 4.09843e-09 3.11603e-06 -1.2652e-06 -2.65711e-09
53 -0.503224 -4.05387 -9.7788e-10 -2.18941e-06 1.29223e-06 -6.61673e-09
26 0.448861 -3.42294 2.81833e-09 1.12132e-06 1.63233e-07 -3.64877e-09
14 1.57006 -4.18987 9.5662e-10 4.26696e-06 4.48861e-07 6.61055e-09
72 2.7234 -3.48446 7.48178e-09 -3.17646e-06 -1.15387e-06 9.33436e-09
54 3.54261 -4.249 5.47095e-09 6.33797e-07 1.81493e-07 1.03636e-08
22 4.72624 -4.00374 1.34741e-09 8.93346e-07 1.19259e-06 -1.5458e-09
83 -5.00561 -2.55704 1.27433e-11 -3.08831e-07 9.0869e-07 1.01795e-08
67 -3.9723 -2.80275 -3.92457e-10 3.47047e-07 -7.90491e-07 -3.39165e-10
36 -2.6746 -2.72881 5.29374e-09 2.1999e-06 2.44978e-07 1.73119e-09
12 -1.529 -2.29779 -4.71383e-10 -3.34554e-06 -1.29773e-06 1.83972e-09
68 -0.556265 -2.96613 1.04714e-08 -3.12575e-07 2.00578e-06 -3.95298e-09
76 0.341284 -2.3697 1.25665e-09 1.49118e-06 -3.30124e-06 -9.79981e-09
3 1.62582 -2.77981 5.35775e-10 -2.67033e-06 -1.08972e-06 -4.18537e-09
50 2.90531 -2.34572 -5.92407e-09 2.3411e-06 -1.16348e-07 -2.45436e-09
30 3.8627 -3.14774 3.94385e-09 -1.62079e-08 2.01621e-07 -5.66186e-09
64 4.97154 -2.73965 5.87748e-09 -5.74225e-07 5.15102e-07 -1.0168e-09
55 -4.35751 -1.8097 -2.24492e-09 -3.52877e-06 7.4492e-07 8.04097e-09
84 -3.43646 -1.99872 2.44602e-09 4.10461e-06 9.49122e-08 8.97833e-10
10 -2.40165 -1.24635 -3.57543e-10 -2.55614e-07 -1.00431e-06 -3.19289e-10
100 -0.506059 -1.9478 -3.30393e-09 6.23581e-07 1.70656e-06 -2.53545e-09
46 -1.06468 -1.05143 -3.16336e-09 -5.17136e-07 5.83108e-07 3.94306e-10
33 0.133324 -1.17335 5.39142e-11 1.83776e-06 -8.03969e-07 3.16992e-09
61 1.08247 -1.7216 -1.08826e-09 -2.31172e-06 1.35025e-06 9.42862e-09
65 2.10864 -1.62029 4.09057e-09 3.51597e-06 -4.27576e-07 -5.8092e-09
75 4.2312 -2.12716 4.98083e-09 1.42581e-06 -3.75981e-07 -5.71689e-09
63 3.35217 -1.43433 -9.22288e-10 -1.18363e-06 1.6058e-06 -2.99357e-09
42 5.36595 -1.64534 -8.51792e-10 2.54286e-06 -8.08344e-07 -1.59254e-09
48 -4.78343 -0.70373 -5.9444e-09 2.15685e-06 8.09055e-08 -1.09635e-08
62 -3.64106 -0.970973 -4.92235e-09 -3.36802e-06 4.28953e-08 -1.59867e-09
79 -3.97624 -0.0488134 4.75055e-09 -3.76504e-06 2.6151e-07 3.17141e-09
40 -1.70555 -0.130419 -2.17248e-09 2.6248e-06 -8.06478e-07 -9.71277e-09
7 -0.169172 0.0676213 7.71987e-10 -3.56713e-07 -1.60724e-06 -1.09167e-08
21 1.31607 -0.496799 -7.68499e-10 6.21606e-07 1.99206e-07 3.93463e-09
37 2.64376 -0.625991 -2.48654e-09 -2.60796e-08 -6.92583e-08 -5.76225e-09
74 3.7502 -0.462575 1.36956e-09 3.64422e-06 1.03816e-06 -5.0422e-09
78 4.37242 -1.15286 6.18464e-09 -2.52295e-06 -3.13952e-07 9.44824e-09
4 5.02884 -0.215222 -5.06416e-09 -2.05025e-06 1.44054e-06 4.87271e-09
38 -4.80413 0.570384 5.00732e-09 -3.62615e-06 -3.23638e-07 6.54548e-09
89 -3.74425 0.785969 1.81561e-09 3.16856e-06 1.87619e-07 -7.54e-09
29 -2.91619 0.0962166 5.53854e-09 -6.86661e-07 -2.11791e-07 7.83565e-09
77 -2.16881 0.859075 -3.94106e-09 -2.34479e-06 9.5126e-07 9.81344e-09
60 -1.11051 0.773422 -8.41789e-10 2.54561e-06 1.33723e-06 6.09183e-09
1 1.01042 0.850615 3.47085e-09 -2.95084e-06 8.74454e-07 -5.08425e-09
9 2.42935 0.573982 -3.86671e-10 -1.23183e-07 -3.50394e-07 5.66254e-09
13 3.84357 0.688332 3.26263e-09 3.10878e-06 3.41084e-07 -1.61589e-09
15 -4.38855 1.82077 2.68589e-09 1.29642e-06 -2.45976e-07 5.05025e-11
25 -2.95655 1.6824 4.4837e-10 -1.34272e-07 -5.82436e-07 -2.25313e-09
41 -1.6355 1.79157 6.16364e-09 5.64562e-08 8.99276e-07 -4.68035e-09
18 -0.238288 1.60016 -4.96714e-09 -1.50787e-07 -8.64792e-07 4.95915e-09
86 0.840574 2.00038 -2.07974e-09 -5.10199e-07 7.79208e-07 8.31449e-09
8 1.97311 1.93248 -8.39143e-09 2.75394e-07 7.76567e-07 -1.09542e-08
57 3.1303 1.64283 -6.43836e-09 -8.71343e-07 -7.52402e-07 -6.34523e-10
91 4.05189 1.75081 1.05694e-09 8.62825e-07 5.45637e-07 -6.42849e-09
5 5.15585 1.34121 2.04932e-09 6.14157e-07 -1.90526e-06 4.34753e-09
82 -5.3482 2.42899 2.94127e-09 -1.88725e-07 -9.47538e-07 -1.54709e-10
69 -4.62278 3.06382 7.07712e-09 -2.17125e-06 1.70576e-06 -1.11129e-08
39 -3.52409 2.95646 -1.54698e-10 2.34123e-07 -7.88365e-07 -8.03443e-09
16 -2.20558 3.03452 -2.35065e-10 3.43298e-07 1.39367e-06 9.00609e-09
51 -0.958702 2.63863 -1.69589e-09 -1.35173e-07 -9.87117e-07 2.84986e-09
20 0.193625 2.93561 -1.0348e-09 -6.91065e-07 1.69946e-06 -3.53691e-09
96 1.26766 2.86894 5.20877e-09 6.73033e-08 -6.55538e-07 -3.79651e-09
85 2.17887 3.08152 -3.86818e-09 6.74574e-07 1.43886e-06 2.04479e-09
23 3.19622 2.83254 -4.64887e-10 3.77767e-06 -1.26117e-06 -4.29703e-09
17 4.60205 2.68695 2.86087e-09 -3.10559e-06 3.18919e-07 -4.61879e-09
11 5.43101 3.74196 -8.20941e-09 -1.16873e-07 -8.26288e-07 -2.30918e-09
58 -4.20932 4.04886 3.82485e-09 -5.37776e-07 -1.90479e-08 1.13971e-09
32 -3.03808 4.13216 4.44947e-09 -2.11309e-07 -2.29543e-07 -4.08384e-09
71 -1.91534 4.20288 1.36389e-10 1.24495e-06 9.5303e-07 -9.30722e-09
44 -0.952464 3.69217 2.44334e-09 3.2689e-07 -3.39847e-06 -3.21316e-09
73 0.101688 4.18543 9.30043e-10 2.71582e-06 1.41134e-06 -3.9685e-10
97 0.916842 3.68417 1.47452e-09 -4.66059e-06 -2.35778e-07 1.07992e-08
92 1.69043 3.70824 -4.8097e-09 2.30177e-06 -9.03749e-07 -2.24748e-09
6 2.65565 4.26524 -2.29403e-09 -2.19127e-07 1.56139e-06 1.23643e-09
45 3.96939 3.83513 3.68562e-09 -4.96696e-07 2.05952e-07 -9.47104e-09
19 -4.9776 5.04976 3.45671e-09 3.37212e-07 2.28495e-07 -1.03904e-08
49 -3.65691 5.13524 -1.53696e-09 -1.5361e-08 -1.97933e-07 -4.11173e-09
24 -2.38857 5.38964 1.2103e-09 4.43796e-07 1.48112e-06 -4.52461e-09
2 -0.950804 5.00392 3.0205e-09 -5.69991e-07 -1.04918e-06 -1.00847e-08
52 0.252967 5.24088 -8.2237e-10 9.69147e-07 9.82042e-07 5.74684e-09
34 1.24985 4.69058 1.50999e-09 1.81134e-06 -1.33576e-06 1.02407e-08
56 3.61711 4.94363 -3.88683e-09 -3.90903e-06 -1.77037e-07 -6.16787e-09
31 4.71062 4.87505 -2.69937e-09 -1.67977e-07 -6.10307e-08 -8.49845e-09
ITEM: TIMESTEP
1816
ITEM: NUMBER OF ATOMS
100
ITEM: BOX BOUNDS xy xz yz pp pp pp
-5.5019748658469672e+00 5.5019748658469672e+00 0.0000000000000000e+00
-5.5030030888753911e+00 5.5030030888753911e+00 0.0000000000000000e+00
-1.0000000000000001e-01 1.0000000000000001e-01 0.0000000000000000e+00
ITEM: ATOMS id x y z vx vy vz
35 -5.13698 -4.56218 -8.9651e-10 -6.66459e-07 1.83658e-06 -3.10068e-09
90 -4.27986 -4.99873 -1.70349e-09 -2.04867e-06 -7.18177e-06 -7.21799e-11
47 -3.25094 -4.64363 4.07192e-09 -2.09746e-06 3.15024e-06 4.99405e-09
88 -2.17042 -4.48758 5.0405e-09 -1.90792e-07 4.68687e-06 5.49058e-10
59 -1.32399 -4.78449 3.04589e-09 1.36957e-07 -1.92753e-06 -3.00019e-09
93 -0.356997 -5.01653 1.18077e-09 3.26055e-06 -3.0443e-06 8.78231e-09
99 0.415146 -4.57546 -3.7534e-09 5.30893e-06 -5.53863e-07 1.07524e-08
80 1.02355 -5.19269 -4.44802e-10 -8.15555e-06 7.70364e-07 8.84551e-09
28 2.06952 -5.48873 6.9171e-09 -4.22425e-06 -6.28996e-06 1.78766e-09
98 2.6392 -4.44794 5.09843e-10 -9.30409e-06 -4.93949e-07 1.80184e-10
70 3.09614 -5.25628 -1.0125e-08 -1.7034e-06 1.43608e-06 7.28018e-09
94 4.10575 -5.15895 5.66701e-09 2.40899e-06 3.20968e-07 3.94362e-09
66 5.03473 -5.14554 -1.34855e-10 1.01132e-05 7.27956e-07 -5.61435e-09
81 -5.24421 -3.43955 -4.35721e-09 -7.45134e-06 2.88512e-06 -1.05786e-08
43 -4.31114 -3.86534 5.3819e-09 -3.95621e-06 -7.6477e-06 8.19056e-09
87 -3.40455 -3.57636 -9.59447e-10 -1.65589e-06 3.61126e-06 1.00302e-08
95 -2.56817 -3.76857 4.4881e-09 1.68208e-06 -2.47331e-06 -6.95915e-09
27 -1.57635 -3.55271 3.78812e-10 7.55104e-06 -3.91326e-06 -1.38801e-09
53 -0.503211 -4.05388 -9.77605e-10 -4.58726e-06 5.3766e-07 8.31012e-09
26 0.448842 -3.42296 -2.40692e-09 4.19724e-06 -1.91819e-06 2.04342e-09
14 1.56999 -4.18989 6.90131e-09 1.26131e-05 -1.63341e-06 1.05557e-08
72 2.72309 -3.48449 6.22762e-09 -8.98877e-06 -6.65569e-07 -9.01227e-09
54 3.54229 -4.24902 3.6552e-09 -1.34291e-06 3.86956e-07 6.21317e-09
22 4.72583 -4.00373 5.05882e-09 2.48669e-06 4.36244e-06 -1.20953e-09
83 -5.00515 -2.55704 -1.7712e-09 7.65612e-08 3.29494e-06 8.37193e-10
67 -3.97193 -2.80277 -3.59622e-09 1.58913e-06 -4.22177e-07 -3.38655e-09
36 -2.67431 -2.72882 2.73457e-09 6.3899e-06 4.5197e-07 -9.76862e-09
12 -1.52891 -2.29782 3.20492e-10 -7.44371e-06 -2.52465e-06 -9.10224e-09
68 -0.556215 -2.96611 9.03264e-09 1.05787e-06 5.86527e-06 -2.60848e-09
76 0.341273 -2.36976 -2.24665e-09 2.72395e-06 -6.15351e-06 -5.90895e-09
3 1.62563 -2.77983 -2.11441e-09 -6.23847e-06 -1.15483e-06 7.21037e-09
50 2.90508 -2.34574 -4.59376e-09 4.53869e-06 -1.55256e-06 -8.32998e-09
30 3.86235 -3.14776 -5.08819e-10 -2.17988e-06 -1.40871e-06 -2.29596e-09
64 4.97107 -2.73966 5.05212e-09 -2.04801e-06 1.85701e-06 -4.13789e-09
55 -4.35715 -1.80972 -2.88086e-09 -4.52337e-06 -2.24259e-06 -7.88437e-09
84 -3.43609 -1.99873 3.47957e-09 5.77594e-06 9.21565e-07 8.85266e-09
10 -2.40145 -1.24638 8.34259e-11 -2.5551e-06 -3.70872e-06 -7.16979e-09
100 -0.506004 -1.94778 -1.06553e-08 1.20651e-06 3.68155e-06 1.53249e-09
46 -1.0646 -1.05142 -6.45133e-10 -1.74225e-06 3.07602e-06 9.52965e-09
33 0.133337 -1.17337 1.15561e-09 3.46991e-06 -3.45262e-06 3.99713e-09
61 1.08235 -1.72158 -2.64625e-09 -2.5032e-06 4.51776e-06 6.4931e-09
65 2.10851 -1.62031 6.33046e-09 7.29765e-06 -2.44536e-06 1.48778e-10
75 4.23084 -2.12718 -2.01393e-09 3.87357e-06 -1.18055e-06 4.60913e-09
63 3.35184 -1.43431 7.73345e-09 -2.6666e-06 4.49158e-06 -5.64123e-09
42 5.36551 -1.64535 -4.51186e-09 5.9299e-06 -2.46233e-07 4.3402e-09
48 -4.78296 -0.703732 -3.43973e-09 5.02485e-06 3.9701e-07 -1.07065e-09
62 -3.64078 -0.970978 4.71622e-10 -9.04659e-06 -2.71653e-07 -3.35354e-09
79 -3.97594 -0.0488073 1.37468e-08 -1.05977e-05 1.09593e-06 3.09753e-09
40 -1.70534 -0.130433 -1.24506e-08 8.87242e-06 -1.93199e-06 -7.59372e-09
7 -0.169161 0.067599 -3.67741e-09 -8.69483e-07 -3.17888e-06 -1.63535e-09
21 1.31596 -0.496789 -1.53687e-09 2.40464e-06 2.72548e-06 1.08681e-08
37 2.64353 -0.625997 -8.66897e-09 3.50692e-06 -1.4724e-07 2.69311e-09
74 3.74993 -0.462564 4.09287e-09 1.03416e-05 1.48274e-06 2.70433e-09
78 4.37198 -1.15287 5.8213e-09 -6.82348e-06 -5.39171e-07 6.3927e-09
4 5.02835 -0.215209 -2.54213e-10 -4.8618e-06 1.17095e-06 -3.857e-09
38 -4.80374 0.570377 7.98056e-09 -6.58009e-06 -1.21336e-06 2.90855e-09
89 -3.74386 0.785963 -5.18636e-10 7.19387e-06 -2.59439e-06 -1.12572e-09
29 -2.91594 0.0962114 6.12706e-09 -2.81794e-06 -1.18926e-06 2.94231e-09
77 -2.16866 0.859104 -2.39615e-10 -5.50268e-06 4.50096e-06 -5.09534e-09
60 -1.11038 0.773453 3.23971e-09 4.08466e-06 5.17027e-06 6.22581e-09
1 1.01027 0.85063 8.47868e-09 -8.4662e-06 1.40142e-06 1.107e-08
9 2.42913 0.573975 1.78924e-09 -4.72764e-07 -1.3869e-06 -1.10151e-08
13 3.84327 0.688339 4.63076e-09 9.42857e-06 7.35481e-07 -8.11289e-11
15 -4.38813 1.82077 9.87626e-09 2.60752e-06 -1.27691e-06 -3.85837e-09
25 -2.95628 1.68239 9.48414e-11 7.33754e-07 -2.42886e-06 -5.88e-09
41 -1.63534 1.7916 -1.97855e-09 1.00837e-06 2.90027e-06 5.22736e-09
18 -0.238266 1.60015 1.62836e-09 9.73541e-08 -3.24751e-06 -6.88235e-09
86 0.840484 2.00041 2.83641e-09 -2.04843e-06 3.50981e-06 -8.72916e-09
8 1.97294 1.9325 -5.46316e-09 7.86593e-07 3.02808e-06 -1.01147e-08
57 3.13 1.64283 5.36731e-10 -1.1537e-06 -2.2694e-06 -9.59821e-10
91 4.05154 1.75083 -5.44014e-09 3.33977e-06 3.44441e-06 8.30174e-09
5 5.15539 1.34118 2.11102e-09 1.99635e-06 -5.28834e-06 1.5003e-09
82 -5.34773 2.42899 1.95204e-09 -2.75637e-06 -2.87493e-06 8.97336e-10
69 -4.6224 3.06387 1.1268e-08 -6.53492e-06 4.4015e-06 9.69222e-09
39 -3.52377 2.95646 -3.41828e-09 -5.59548e-07 -9.77073e-07 5.93351e-09
16 -2.20537 3.03456 -3.1488e-09 1.3138e-06 4.61444e-06 6.47335e-10
51 -0.958623 2.63862 -6.02784e-09 -1.39471e-06 -5.17817e-06 9.9002e-09
20 0.193596 2.93565 -2.62136e-10 -2.25318e-06 2.93501e-06 -2.98539e-09
96 1.26754 2.86895 6.59448e-10 -4.46812e-07 -1.02221e-06 -5.63811e-09
85 2.17869 3.08156 -2.5861e-09 3.32975e-06 3.16002e-06 3.16645e-09
23 3.19599 2.83254 -2.86049e-09 9.54684e-06 -1.62012e-06 -5.10364e-09
17 4.60158 2.68696 -1.67019e-09 -8.90852e-06 -6.88689e-07 1.00201e-08
11 5.43052 3.74196 -6.99153e-09 -3.449e-07 -2.74843e-06 3.30252e-09
58 -4.20895 4.04889 1.93995e-09 -1.80773e-06 2.03041e-06 8.18397e-09
32 -3.0378 4.13218 9.07606e-09 7.01697e-07 9.47549e-07 8.03732e-09
71 -1.91514 4.20293 -8.17539e-10 4.13702e-06 3.73392e-06 5.02849e-09
44 -0.952368 3.69214 -4.03815e-09 2.08755e-06 -7.35476e-06 -8.84416e-09
73 0.101722 4.18547 -2.50609e-09 6.6391e-06 3.18774e-06 8.57646e-09
97 0.916701 3.68418 4.23934e-10 -7.17127e-06 -1.16031e-06 -4.02025e-09
92 1.6903 3.70823 -7.79944e-09 -1.14879e-07 -5.21963e-06 1.49802e-10
6 2.65541 4.26529 -9.99572e-09 2.26766e-07 5.28426e-06 -1.03908e-08
45 3.96901 3.83515 6.24585e-10 -2.54421e-06 8.4653e-07 -2.13864e-09
19 -4.97714 5.04979 4.24196e-09 1.08511e-07 9.34709e-07 -5.15066e-09
49 -3.65657 5.13527 -2.7809e-10 1.09384e-06 -3.66228e-07 -3.12929e-09
24 -2.38835 5.3897 3.54364e-09 1.39638e-06 5.30249e-06 5.14666e-09
2 -0.950729 5.00393 1.2699e-09 -1.24427e-06 -3.69511e-06 5.63358e-09
52 0.252963 5.24093 -1.84499e-10 3.32942e-06 3.9927e-06 7.77871e-09
34 1.24978 4.69058 -5.26757e-10 5.62957e-06 -1.86871e-06 6.93335e-09
56 3.61672 4.94366 -6.11095e-09 -9.86732e-06 6.81036e-07 -1.18535e-09
31 4.71019 4.87507 3.94724e-10 -9.23012e-07 1.82115e-07 -6.26478e-09
ITEM: TIMESTEP
2724
ITEM: NUMBER OF ATOMS
100
ITEM: BOX BOUNDS xy xz yz pp pp pp
-5.5014752026356950e+00 5.5014752026356950e+00 0.0000000000000000e+00
-5.5029548634243222e+00 5.5029548634243222e+00 0.0000000000000000e+00
-1.0000000000000001e-01 1.0000000000000001e-01 0.0000000000000000e+00
ITEM: ATOMS id x y z vx vy vz
35 -5.13652 -4.56212 -5.9362e-09 4.89948e-07 2.58419e-06 7.82712e-09
90 -4.2795 -4.99878 -3.48402e-09 -2.92977e-06 -1.30442e-05 5.9202e-09
47 -3.25068 -4.64355 -2.59315e-09 -3.97608e-06 3.93303e-06 2.64014e-09
88 -2.17022 -4.48747 6.41389e-09 7.31024e-07 1.027e-05 -2.41516e-09
59 -1.32387 -4.78448 -1.60186e-09 6.17307e-07 -2.86724e-06 3.11015e-10
93 -0.356926 -5.01651 -3.98228e-09 5.31594e-06 -2.66472e-06 -3.84656e-09
99 0.415168 -4.57542 -4.31719e-09 7.59781e-06 9.88117e-07 -2.36009e-09
80 1.02338 -5.19263 -8.65586e-10 -1.00988e-05 1.47692e-06 -8.84685e-09
28 2.06928 -5.48876 1.15344e-08 -7.63666e-06 -9.77893e-06 -4.89274e-09
98 2.63886 -4.44791 -4.17833e-09 -1.28412e-05 -1.76402e-06 -5.69047e-09
70 3.09584 -5.25622 -1.4096e-08 -3.39958e-06 2.37941e-10 -5.34075e-09
94 4.10542 -5.1589 6.53182e-09 5.70525e-06 -1.17129e-06 -2.00086e-09
66 5.03438 -5.14549 -2.63396e-09 1.28587e-05 1.14863e-06 8.51847e-09
81 -5.24381 -3.43948 -5.42172e-09 -9.93483e-06 4.69827e-06 -8.72683e-09
43 -4.3108 -3.86538 8.33288e-09 -6.72394e-06 -9.46685e-06 -5.95683e-09
87 -3.40426 -3.57628 -5.95884e-09 -3.58776e-06 5.49109e-06 -4.35865e-10
95 -2.56792 -3.76856 7.23188e-10 1.90895e-06 -2.81666e-06 4.08489e-09
27 -1.57613 -3.55274 -9.87993e-10 9.90794e-06 -7.59516e-06 8.61497e-09
53 -0.503205 -4.05384 -1.25e-09 -3.57322e-06 -5.61505e-07 -1.31673e-09
26 0.448854 -3.42297 -1.85524e-09 7.63938e-06 -6.44896e-06 -2.05158e-09
14 1.56999 -4.18989 8.30974e-09 1.73032e-05 -5.62372e-06 -5.91837e-09
72 2.72274 -3.48446 1.00411e-08 -1.39268e-05 -6.40578e-07 -8.00658e-09
54 3.54194 -4.24898 5.69118e-09 -4.52072e-06 2.03476e-06 -8.05125e-09
22 4.72542 -4.00365 2.64674e-09 1.96158e-06 6.13992e-06 -8.2608e-09
83 -5.0047 -2.55698 -1.41473e-10 -4.05505e-07 5.31366e-06 1.00412e-08
67 -3.97155 -2.80276 -7.32476e-09 4.41762e-06 -2.53484e-06 7.77198e-09
36 -2.67399 -2.72879 7.03197e-09 1.05403e-05 2.87431e-07 2.83283e-10
12 -1.52885 -2.29782 -3.80627e-09 -7.72058e-06 -9.79173e-07 -9.24084e-10
68 -0.556135 -2.96603 -1.32409e-09 5.334e-06 6.28905e-06 -4.89777e-10
76 0.341265 -2.36979 -1.04271e-09 2.76134e-06 -5.94837e-06 -7.45918e-09
3 1.62542 -2.77982 1.61985e-09 -7.41071e-06 -1.03155e-06 -2.87528e-09
50 2.90487 -2.34574 -1.16699e-10 5.81406e-06 -1.84208e-06 -7.29798e-09
30 3.86196 -3.14775 2.66908e-09 -6.46959e-06 -2.35968e-06 -1.04767e-08
64 4.9706 -2.73961 -1.93252e-09 -3.42515e-06 2.80842e-06 7.72028e-09
55 -4.35679 -1.80973 -2.13671e-09 -4.15373e-06 -4.91612e-06 9.66087e-09
84 -3.43573 -1.9987 8.29654e-09 5.38617e-06 1.23376e-06 -5.00634e-09
10 -2.40127 -1.24641 2.38051e-09 -5.69365e-06 -4.36905e-06 -1.65438e-09
100 -0.505951 -1.94774 -1.40306e-08 1.10491e-07 2.54961e-06 7.13865e-09
46 -1.06452 -1.05138 -3.99795e-09 -2.7135e-06 3.60088e-06 -8.5445e-09
33 0.133361 -1.17341 -1.31293e-09 4.2135e-06 -6.11076e-06 -2.8201e-09
61 1.08224 -1.72152 -1.23068e-09 -1.28656e-06 5.26744e-06 8.97135e-10
65 2.10838 -1.62033 -1.12309e-09 8.05238e-06 -4.83521e-06 -9.22498e-09
75 4.23049 -2.12717 -6.0105e-09 3.01231e-06 -3.04428e-06 -1.31943e-09
63 3.35152 -1.43425 1.15295e-08 -1.28949e-06 4.85565e-06 -3.38289e-09
42 5.36507 -1.64533 -1.35478e-09 5.25908e-06 2.4313e-06 -9.22888e-09
48 -4.78247 -0.703718 3.58053e-09 5.98706e-06 1.34944e-06 -6.38039e-09
62 -3.64056 -0.970974 1.8193e-09 -1.43304e-05 -2.92515e-07 -7.01907e-09
79 -3.9757 -0.0487969 1.2045e-08 -1.51553e-05 3.84814e-07 9.61287e-10
40 -1.7051 -0.130456 -1.37341e-08 9.8552e-06 -3.49445e-06 -6.77974e-09
7 -0.169155 0.0675671 -2.61148e-09 -1.98858e-06 -4.0177e-06 -3.09903e-09
21 1.31588 -0.496748 -1.74494e-09 5.26734e-06 5.09338e-06 -7.11288e-09
37 2.64336 -0.625991 -4.90437e-09 9.80225e-06 1.19946e-07 4.19756e-09
74 3.74971 -0.462546 5.47253e-09 1.586e-05 1.51974e-06 -3.97881e-09
78 4.37152 -1.15287 5.52386e-09 -7.18364e-06 -6.88734e-07 -8.03848e-09
4 5.02785 -0.215197 -3.59657e-10 -5.84444e-06 1.25045e-06 1.0472e-08
38 -4.80336 0.570369 7.92692e-09 -5.28704e-06 7.14775e-07 5.46422e-09
89 -3.74346 0.78592 -3.16438e-09 6.11382e-06 -4.68991e-06 5.44968e-09
29 -2.91571 0.096189 5.24081e-09 -3.63859e-06 -3.3984e-06 -6.66229e-09
77 -2.16851 0.859148 -4.61399e-10 -6.46264e-06 6.46624e-06 -9.77989e-09
60 -1.11025 0.773509 -6.48608e-10 2.04629e-06 8.6333e-06 2.99031e-09
1 1.01008 0.850641 1.56176e-08 -1.27533e-05 2.84947e-06 -6.39445e-09
9 2.4289 0.573955 3.67941e-10 -1.52256e-07 -1.53591e-06 4.72952e-09
13 3.84303 0.688349 3.97978e-09 1.39218e-05 2.42052e-06 -8.0185e-10
15 -4.38771 1.82074 1.12023e-08 2.81467e-06 -1.21207e-06 1.96236e-09
25 -2.956 1.68235 -1.38303e-10 1.23321e-06 -4.17043e-06 2.76555e-09
41 -1.63518 1.79162 -3.57061e-09 2.13414e-06 5.10621e-06 7.76934e-09
18 -0.238242 1.6001 -1.15804e-09 3.64172e-07 -5.10953e-06 -8.45234e-10
86 0.840387 2.00044 4.5814e-10 -2.41161e-06 6.62286e-06 -3.42472e-09
8 1.97277 1.93252 -1.69856e-08 4.17627e-07 4.62065e-06 -1.0537e-08
57 3.12972 1.64278 -6.87358e-10 1.71433e-06 -4.45387e-06 -8.67882e-09
91 4.05121 1.75086 -1.00606e-08 3.80576e-06 6.25727e-06 3.75701e-09
5 5.15495 1.34111 3.64635e-10 2.55275e-06 -6.63629e-06 6.59588e-09
82 -5.34728 2.42893 -2.61833e-09 -6.49005e-06 -4.59659e-06 1.78654e-09
69 -4.62205 3.06389 1.18002e-08 -9.28311e-06 5.73966e-06 -3.29022e-09
39 -3.52347 2.95643 -8.13253e-09 -2.78443e-06 -6.78667e-07 3.85361e-09
16 -2.20516 3.03459 -1.31165e-09 9.86769e-07 7.46881e-06 7.00978e-09
51 -0.958552 2.63852 -3.49936e-09 -2.21502e-06 -1.15721e-05 -8.36106e-09
20 0.193549 2.93565 5.78559e-09 -3.64422e-06 2.45093e-06 -7.54504e-10
96 1.26743 2.86892 1.22144e-10 1.04964e-06 -7.65368e-07 4.11382e-09
85 2.17854 3.08157 -3.95222e-09 6.80757e-06 5.38619e-06 -8.85118e-09
23 3.1958 2.83251 6.52476e-10 1.33145e-05 -3.77223e-07 1.76297e-09
17 4.60106 2.68691 -8.99687e-10 -1.26763e-05 -5.21448e-06 -5.5248e-09
11 5.43001 3.74189 -1.39531e-08 -1.58124e-06 -4.91116e-06 -1.54908e-09
58 -4.20859 4.04888 4.3801e-10 -2.31467e-06 5.26164e-06 4.56678e-09
32 -3.03751 4.13216 1.37581e-08 2.11475e-06 2.07125e-06 6.88873e-09
71 -1.91491 4.20294 -6.92119e-09 6.72707e-06 7.47123e-06 -1.06421e-08
44 -0.952246 3.69203 -5.2763e-09 5.56884e-06 -8.72815e-06 1.09375e-08
73 0.101786 4.18547 -4.27439e-09 9.14834e-06 4.034e-06 4.70228e-09
97 0.916548 3.68414 -4.46447e-09 -8.19597e-06 -1.129e-06 5.65422e-09
92 1.69013 3.70814 -1.0385e-08 -1.61754e-06 -7.63837e-06 6.84617e-09
6 2.65516 4.26531 -1.14912e-09 -2.79881e-06 6.15408e-06 -5.249e-09
45 3.96862 3.83513 -1.90234e-09 -4.20486e-06 1.95871e-06 1.00387e-09
19 -4.97669 5.04975 2.6396e-10 -4.7775e-07 3.2734e-07 2.91827e-10
49 -3.65623 5.13522 3.67686e-09 1.94097e-06 -8.25232e-07 2.32613e-09
24 -2.38812 5.38971 5.03339e-10 1.87726e-06 7.86646e-06 -2.25752e-09
2 -0.950645 5.00384 5.11023e-09 1.01119e-06 -6.0614e-06 1.4404e-09
52 0.252978 5.24093 -8.56349e-09 5.1652e-06 6.94598e-06 -4.75313e-09
34 1.24972 4.69053 3.45729e-09 7.01498e-06 -8.64429e-07 6.73503e-09
56 3.61629 4.94363 -9.50189e-09 -1.24229e-05 2.85332e-06 1.06109e-08
31 4.70973 4.87504 -6.02697e-10 -4.67337e-06 1.71492e-06 3.24446e-09
ITEM: TIMESTEP
3632
ITEM: NUMBER OF ATOMS
100
ITEM: BOX BOUNDS xy xz yz pp pp pp
-5.5009755394244229e+00 5.5009755394244229e+00 0.0000000000000000e+00
-5.5028442467277490e+00 5.5028442467277490e+00 0.0000000000000000e+00
-1.0000000000000001e-01 1.0000000000000001e-01 0.0000000000000000e+00
ITEM: ATOMS id x y z vx vy vz
35 -5.13604 -4.562 -5.37159e-09 1.21276e-06 2.21949e-06 6.35556e-09
90 -4.27914 -4.99881 1.69456e-09 -3.39166e-06 -1.61228e-05 -1.03117e-08
47 -3.25042 -4.64342 -4.51595e-09 -3.93347e-06 4.29474e-06 7.78437e-10
88 -2.17002 -4.48727 1.04408e-08 6.80834e-07 1.42968e-05 -5.37416e-09
59 -1.32374 -4.7844 -3.86462e-09 4.59633e-07 -3.08659e-06 2.44082e-09
93 -0.356838 -5.01644 -6.219e-09 7.07473e-06 -3.54208e-06 3.86276e-09
99 0.415206 -4.57531 -1.03977e-08 8.98871e-06 2.41207e-06 5.54281e-09
80 1.02319 -5.19251 -9.86846e-10 -1.13908e-05 1.78353e-06 -2.97229e-09
28 2.06901 -5.48874 1.44918e-08 -8.6734e-06 -1.17903e-05 7.63222e-09
98 2.63849 -4.44784 -9.97206e-09 -1.42444e-05 -3.55955e-06 4.41198e-10
70 3.09553 -5.25613 -1.2111e-08 -2.52455e-06 -2.00025e-06 3.85603e-09
94 4.10509 -5.15881 5.35798e-09 5.1531e-06 -1.73967e-06 -6.20649e-09
66 5.03404 -5.14537 7.08954e-10 1.34785e-05 2.50994e-06 -2.21341e-09
81 -5.24343 -3.43937 -4.3266e-09 -1.00395e-05 5.13529e-06 2.36058e-09
43 -4.31048 -3.8654 6.78189e-09 -8.71894e-06 -1.05169e-05 3.95634e-09
87 -3.40399 -3.57616 -4.8273e-09 -4.75119e-06 5.62129e-06 -1.01741e-08
95 -2.56767 -3.76852 -1.09865e-09 1.00881e-06 -3.5268e-06 -4.80768e-09
27 -1.57589 -3.55274 4.84999e-09 1.13381e-05 -8.88035e-06 4.84613e-09
53 -0.503184 -4.05376 -1.08022e-10 -1.98222e-06 6.0256e-07 3.99875e-09
26 0.448892 -3.42297 3.28119e-09 9.43476e-06 -8.51354e-06 -1.33067e-09
14 1.57002 -4.18987 6.20042e-09 2.00991e-05 -7.74703e-06 -2.06766e-09
72 2.72235 -3.4844 8.15021e-09 -1.76515e-05 -1.14276e-06 -2.97171e-09
54 3.54156 -4.24886 9.32917e-09 -7.93835e-06 4.07581e-06 -7.53851e-09
22 4.725 -4.00351 3.04801e-09 5.28983e-07 7.03091e-06 -1.10507e-08
83 -5.00424 -2.55687 4.70098e-10 1.13898e-06 5.52434e-06 8.7656e-09
67 -3.97114 -2.80274 -4.7003e-09 5.37336e-06 -5.21919e-06 -5.85402e-09
36 -2.67364 -2.72873 5.74354e-09 1.31264e-05 1.29349e-06 3.22431e-09
12 -1.52878 -2.29778 -3.56217e-09 -7.98151e-06 -1.35158e-06 -6.13579e-09
68 -0.556018 -2.96592 -1.12917e-09 8.89203e-06 4.82278e-06 -7.39253e-09
76 0.341257 -2.3698 8.04099e-09 2.45877e-06 -6.21251e-06 1.07638e-08
3 1.62521 -2.77978 -4.05872e-09 -6.8507e-06 -2.06118e-06 -3.263e-09
50 2.90465 -2.34571 -3.97839e-09 5.02011e-06 -1.8354e-06 3.01803e-09
30 3.86154 -3.14772 4.83715e-09 -8.81224e-06 -3.99787e-06 7.11847e-09
64 4.9701 -2.73953 -7.62654e-09 -5.26686e-06 3.42439e-06 9.12911e-09
55 -4.35644 -1.80974 -2.55268e-09 -3.97624e-06 -4.69557e-06 -9.08545e-09
84 -3.43537 -1.99864 8.16979e-09 5.93573e-06 1.28746e-06 -1.99538e-10
10 -2.40111 -1.24642 -6.81618e-10 -8.2981e-06 -3.64001e-06 7.06144e-09
100 -0.505908 -1.94768 -1.51568e-08 -6.85183e-07 1.63057e-06 -1.70982e-09
46 -1.06445 -1.05133 -7.93973e-09 -2.27143e-06 4.25946e-06 5.11621e-09
33 0.133387 -1.17345 -1.93178e-09 4.80479e-06 -7.46033e-06 -6.0565e-09
61 1.08213 -1.72144 -2.00629e-09 -4.9177e-07 4.59346e-06 -1.08458e-08
65 2.10827 -1.62034 3.49669e-09 9.95109e-06 -4.31745e-06 7.20233e-09
75 4.23013 -2.12716 -1.10953e-08 1.75041e-06 -3.55906e-06 1.29543e-09
63 3.35121 -1.43418 1.17735e-08 1.12307e-06 4.46015e-06 2.19035e-09
42 5.36463 -1.64527 9.93289e-10 4.63707e-06 3.56263e-06 -1.01018e-08
48 -4.78199 -0.703693 -7.87661e-10 5.30742e-06 9.66732e-07 8.01658e-09
62 -3.64038 -0.970957 -1.76387e-10 -1.77128e-05 -9.56966e-07 3.4746e-09
79 -3.97549 -0.0487947 1.94182e-08 -1.66936e-05 1.79605e-08 -9.0798e-09
40 -1.70486 -0.13049 -8.98927e-09 7.9007e-06 -4.03933e-06 -8.81358e-09
7 -0.16916 0.0675251 -4.62336e-09 -2.67972e-06 -4.78812e-06 -1.02213e-09
21 1.31582 -0.496689 -9.33103e-10 7.67586e-06 5.26524e-06 1.0782e-08
37 2.64322 -0.625985 -3.25208e-09 1.32259e-05 -9.4335e-07 -6.61119e-09
74 3.74953 -0.462527 9.50464e-09 2.04818e-05 8.50788e-07 -2.64798e-09
78 4.37105 -1.15285 3.55211e-09 -7.50933e-06 -1.17605e-06 -2.4419e-09
4 5.02734 -0.21517 8.00017e-10 -5.44998e-06 3.87253e-06 -5.1782e-09
38 -4.80297 0.570367 4.06177e-09 -5.02952e-06 1.46746e-06 1.03448e-08
89 -3.74306 0.785864 -3.02205e-09 5.47405e-06 -3.75958e-06 -4.93551e-09
29 -2.91548 0.09615 4.84338e-09 -4.80102e-06 -4.72763e-06 -9.68727e-09
77 -2.16838 0.859193 -7.70272e-09 -7.69574e-06 7.0844e-06 -2.8837e-09
60 -1.11014 0.773575 6.14234e-09 3.17667e-07 9.33837e-06 8.86789e-09
1 1.00987 0.850655 1.69032e-08 -1.38798e-05 4.05941e-06 9.56321e-09
9 2.42868 0.573936 5.91959e-09 5.16827e-07 -3.03652e-08 -1.11236e-08
13 3.84282 0.688363 5.12771e-09 1.47426e-05 3.82173e-06 -9.48698e-09
15 -4.38728 1.8207 1.37594e-08 2.40135e-06 1.15322e-06 -7.41616e-09
25 -2.95571 1.68227 2.31015e-09 2.38764e-06 -5.87682e-06 3.37438e-09
41 -1.63501 1.79164 -3.92279e-09 2.10466e-06 7.86199e-06 4.94855e-09
18 -0.238213 1.60001 5.35903e-09 1.10727e-06 -7.36784e-06 8.56964e-09
86 0.840286 2.00047 1.91628e-09 -3.29285e-06 1.03505e-05 -4.86053e-09
8 1.97259 1.93253 -1.58584e-08 8.80698e-07 4.96505e-06 -9.88437e-09
57 3.12945 1.64271 -6.64041e-09 2.30003e-06 -4.42609e-06 7.55054e-09
91 4.05088 1.75089 -1.24427e-08 5.56892e-06 8.79008e-06 -1.00155e-08
5 5.1545 1.34102 7.57953e-09 2.14257e-06 -8.59405e-06 -7.28464e-09
82 -5.34687 2.42883 -3.61035e-09 -7.81369e-06 -5.9139e-06 3.64776e-09
69 -4.62173 3.06388 1.05513e-08 -1.19324e-05 6.30737e-06 -8.22394e-09
39 -3.52319 2.95636 -2.06268e-09 -6.03813e-06 -7.83951e-07 -8.52265e-09
16 -2.20495 3.0346 -6.84476e-09 3.5885e-07 8.58226e-06 1.75644e-09
51 -0.958492 2.63834 4.38928e-10 -3.48733e-06 -1.4908e-05 -9.63575e-09
20 0.193506 2.93561 1.04602e-08 -1.83396e-06 1.01394e-06 4.13322e-09
96 1.26734 2.86885 -1.66201e-09 3.83205e-06 -3.7101e-07 -6.26323e-09
85 2.17842 3.08156 4.49972e-09 8.67778e-06 6.75844e-06 -2.15611e-09
23 3.19564 2.83246 -5.90671e-09 1.51074e-05 1.56483e-06 4.44412e-09
17 4.60052 2.68679 -3.25881e-09 -1.53824e-05 -8.52644e-06 -5.56379e-10
11 5.4295 3.74177 -1.85883e-08 -2.02615e-06 -6.37861e-06 -7.02862e-09
58 -4.20823 4.04886 -3.80228e-09 -2.0039e-06 7.731e-06 8.27989e-09
32 -3.03721 4.1321 1.47333e-08 3.28119e-06 3.43297e-06 1.09514e-08
71 -1.91466 4.20294 -9.08263e-09 1.10448e-05 1.00085e-05 -4.54454e-09
44 -0.952097 3.69187 1.85786e-09 8.27523e-06 -1.05682e-05 -3.81869e-09
73 0.101865 4.18543 -5.33743e-09 1.03184e-05 5.31325e-06 -2.68177e-09
97 0.916388 3.68406 -1.10046e-08 -8.66296e-06 -8.6572e-07 5.2019e-09
92 1.68996 3.70799 -2.05277e-08 -1.4344e-06 -9.38042e-06 -5.90219e-09
6 2.65487 4.26528 -6.13163e-09 -6.3865e-06 6.40171e-06 6.21143e-09
45 3.96822 3.83508 -7.32964e-10 -5.88413e-06 2.04281e-06 -2.49461e-09
19 -4.97625 5.04965 -3.68089e-09 -1.83333e-06 -2.33135e-07 6.02137e-09
49 -3.65588 5.13511 7.08843e-09 1.78203e-06 -1.46627e-06 -4.17757e-09
24 -2.38788 5.38969 -4.54433e-09 3.18017e-06 1.03585e-05 -9.59809e-09
2 -0.950539 5.00367 5.11039e-09 3.22043e-06 -7.90367e-06 7.6894e-09
52 0.25301 5.2409 -1.19552e-08 6.95782e-06 9.10545e-06 -9.29245e-09
34 1.24967 4.69043 6.70893e-09 6.57099e-06 -1.0604e-06 6.62272e-09
56 3.61584 4.94356 -2.05083e-09 -1.41568e-05 4.29553e-06 9.78634e-09
31 4.70925 4.87496 -1.22796e-09 -7.3663e-06 3.46564e-06 9.94268e-09
ITEM: TIMESTEP
4540
ITEM: NUMBER OF ATOMS
100
ITEM: BOX BOUNDS xy xz yz pp pp pp
-5.5004758762131507e+00 5.5004758762131507e+00 0.0000000000000000e+00
-5.5026953900970197e+00 5.5026953900970197e+00 0.0000000000000000e+00
-1.0000000000000001e-01 1.0000000000000001e-01 0.0000000000000000e+00
ITEM: ATOMS id x y z vx vy vz
35 -5.13557 -4.56186 -3.7202e-09 9.76744e-07 1.50954e-06 1.0458e-09
90 -4.27878 -4.99882 1.86328e-09 -3.1623e-06 -1.64615e-05 -7.1881e-09
47 -3.25016 -4.64326 -3.73718e-09 -4.27273e-06 3.9591e-06 -8.62126e-09
88 -2.16981 -4.48701 1.26258e-08 1.30059e-06 1.64417e-05 4.15008e-09
59 -1.32362 -4.7843 3.97829e-09 1.66117e-06 -2.92279e-06 2.43344e-09
93 -0.356738 -5.01634 -8.16944e-09 7.4394e-06 -3.9041e-06 8.21722e-09
99 0.415255 -4.57517 -1.4368e-08 1.02714e-05 3.46307e-06 7.00127e-09