LAMMPS (2 Aug 2023 - Update 3)
  using 1 OpenMP thread(s) per MPI task

variable dt equal 0.01
variable strain equal 0.03
variable srate equal 1e-05
variable M equal 1000 # averaging time for properties
variable strainsteps equal ${strain}/${dt}/${srate}
variable strainsteps equal 0.03/${dt}/${srate}
variable strainsteps equal 0.03/0.01/${srate}
variable strainsteps equal 0.03/0.01/1e-05


dimension 2
include init.mod

# NOTE: This script can be modified for different atomic structures,
# units, etc. See in.elastic for more info.
#

# Define the finite deformation size. Try several values of this
# variable to verify that results do not depend on it.
# variable up equal 1.0e-1

# Define the amount of random jiggle for atoms
# This prevents atoms from staying on saddle points
# variable atomjiggle equal 1.0e-6

# Uncomment one of these blocks, depending on what units
# you are using in LAMMPS and for output

# metal units, elastic constants in eV/A^3
#units		metal
#variable cfac equal 6.2414e-7
#variable cunits string eV/A^3

# Choose potential
# metal units, elastic constants in GPa
units		metal
atom_style	full
#pair_style      lj/cut 1.0
#pair_style      yukawa 1.0 2.0
#pair_modify     mix arithmetic
bond_style      harmonic
angle_style     harmonic
dihedral_style  zero
special_bonds   amber
variable cfac equal 1.0e-4
variable cunits string GPa
boundary	p p p

# Need to set mass to something, just to satisfy LAMMPS
#mass 1 1.0e-20
read_data final_result.lmp
Reading data file ...
  triclinic box = (-5.502899 -5.502899 -0.1) to (5.502899 5.502899 0.1) with tilt (0 0 0)
  1 by 1 by 1 MPI processor grid
WARNING: Atom style in data file ['atomID', 'moleculeID', 'atomType', 'charge', 'x', 'y', 'z'] differs from currently defined atom style full (src/read_data.cpp:621)
  reading atoms ...
  100 atoms
WARNING: Bond style ['bondID', 'bondCoeff', 'd'] in data file differs from currently defined bond style harmonic (src/read_data.cpp:724)
  scanning bonds ...
  3 = max bonds/atom
WARNING: Angle style ['angleID', 'energy', 'value (deg)'] in data file differs from currently defined angle style harmonic (src/read_data.cpp:737)
  scanning angles ...
  10 = max angles/atom
  reading bonds ...
  157 bonds
  reading angles ...
  344 angles
Finding 1-2 1-3 1-4 neighbors ...
  special bond factors lj:    0        0        0.5     
  special bond factors coul:  0        0        0.8333333333333334
     5 = max # of 1-2 neighbors
    10 = max # of 1-3 neighbors
    31 = max # of 1-4 neighbors
    24 = max # of special neighbors
  special bonds CPU = 0.000 seconds
  read_data CPU = 0.004 seconds

# real units, elastic constants in GPa
#units		real
#variable cfac equal 1.01325e-4
#variable cunits string GPa

# Define minimization parameters
variable etol equal 0.0
variable ftol equal 5.0e-10
variable maxiter equal 100000
variable maxeval equal 20000
variable dmax equal 1.0e-2
include potential.mod

# NOTE: This script can be modified for different pair styles
# See in.elastic for more info.

# Setup neighbor style
neighbor 3.0 nsq
neigh_modify once no every 1 delay 0 check yes
comm_modify cutoff 2.0

# Setup minimization style
min_style	     cg
min_modify	     dmax ${dmax} line quadratic
min_modify	     dmax 0.01 line quadratic

timestep	0.001


# Setup output
thermo		500
thermo_style custom step temp pe ebond eangle edihed press pxx pyy pzz pxy pxz pyz lx ly lz vol
# thermo_style custom step temp atoms vx vy vz
thermo_modify norm no


#change_box all triclinic
comm_modify mode single cutoff 10.0 vel yes
atom_modify sort 0 0


# Compute initial state
fix 3 all box/relax x 0 y 0 # xy 0  #MS comment: relax if the network is periodic
minimize ${etol} ${ftol} ${maxiter} ${maxeval}
minimize 0 ${ftol} ${maxiter} ${maxeval}
minimize 0 5e-10 ${maxiter} ${maxeval}
minimize 0 5e-10 100000 ${maxeval}
minimize 0 5e-10 100000 20000
WARNING: Energy due to 3 extra global DOFs will be included in minimizer energies
 (src/min.cpp:228)
WARNING: Inconsistent image flags (src/domain.cpp:815)
Per MPI rank memory allocation (min/avg/max) = 10.73 | 10.73 | 10.73 Mbytes
   Step          Temp          PotEng         E_bond        E_angle        E_dihed         Press           Pxx            Pyy            Pzz            Pxy            Pxz            Pyz             Lx             Ly             Lz           Volume    
         0   0              3.613174e-11   3.6131657e-11  8.303109e-17   0             -0.028280467    0.041396566   -0.0979575      0             -0.030710324    0              0              11.005798      11.005798      0.2            121.12759    
       137   0              1.0134186e-12  1.2959558e-13  8.8382306e-13  0             -1.1552062e-07  5.9151639e-07 -8.2255764e-07  0             -0.00040322214  0              0              11.005798      11.005797      0.2            121.12757    
Loop time of 0.00830003 on 1 procs for 137 steps with 100 atoms

99.5% CPU use with 1 MPI tasks x 1 OpenMP threads

Minimization stats:
  Stopping criterion = force tolerance
  Energy initial, next-to-last, final = 
    3.61317402106769e-11 1.01341865494437e-12 1.01341863949538e-12
  Force two-norm initial, final = 1.9341828e-05 4.1630968e-10
  Force max component initial, final = 7.4057732e-06 1.0517601e-10
  Final line search alpha, max atom move = 1 1.0517601e-10
  Iterations, force evaluations = 137 274

MPI task timing breakdown:
Section |  min time  |  avg time  |  max time  |%varavg| %total
---------------------------------------------------------------
Pair    | 0          | 0          | 0          |   0.0 |  0.00
Bond    | 0.0051364  | 0.0051364  | 0.0051364  |   0.0 | 61.88
Neigh   | 0          | 0          | 0          |   0.0 |  0.00
Comm    | 0.00094931 | 0.00094931 | 0.00094931 |   0.0 | 11.44
Output  | 0          | 0          | 0          |   0.0 |  0.00
Modify  | 0          | 0          | 0          |   0.0 |  0.00
Other   |            | 0.002214   |            |       | 26.68

Nlocal:            100 ave         100 max         100 min
Histogram: 1 0 0 0 0 0 0 0 0 0
Nghost:            696 ave         696 max         696 min
Histogram: 1 0 0 0 0 0 0 0 0 0
Neighs:              0 ave           0 max           0 min
Histogram: 1 0 0 0 0 0 0 0 0 0

Total # of neighbors = 0
Ave neighs/atom = 0
Ave special neighs/atom = 18.36
Neighbor list builds = 0
Dangerous builds = 0
thermo 100
# thermo_style custom step atoms temp press c_vx c_vy c_vz
unfix 3
fix 2d all enforce2d


# These formulas define the derivatives w.r.t. strain components
# Constants uses $, variables use v_
timestep        ${dt}
timestep        0.01
variable nsteps equal round(${strainsteps})
variable nsteps equal round(300000)

#fix             4 all nve
#fix		     6 all press/berendsen y  0.0 0.0 1 x 0.0 0.0 10
#fix             6 all npt temp 0.0001 0.0001 1000.0 y 0.0 0.0 1000.0
fix             5 all langevin 1e-07 1e-07 10 904297
fix             6 all nph y 0.0 0.0 1000.0 ptemp 0.0001
fix     	     9 all deform 1 x erate -${srate} units box remap x
fix     	     9 all deform 1 x erate -1e-05 units box remap x

# For PLUMED2
# fix 22 all plumed plumedfile plumed.dat outfile plumed.out

#To avoid flying ice cube phenomenon:
fix 21 all momentum 100 linear 1 1 1 angular

dump 1 all custom 908 dump.lammpstrj id x y z vx vy vz
run  ${nsteps}
run  300000
WARNING: Inconsistent image flags (src/domain.cpp:815)
Per MPI rank memory allocation (min/avg/max) = 9.601 | 9.601 | 9.601 Mbytes
   Step          Temp          PotEng         E_bond        E_angle        E_dihed         Press           Pxx            Pyy            Pzz            Pxy            Pxz            Pyz             Lx             Ly             Lz           Volume    
       137   0              1.0134186e-12  1.2959558e-13  8.8382306e-13  0             -1.1540196e-07  5.9163129e-07 -8.224352e-07   0             -0.00040322214  0              0              11.005798      11.005797      0.2            121.12757    
       200   8.9899917e-09  2.7019533e-09  2.6693845e-09  3.2568793e-11  0              5.9028562      11.575695      0.23001739     0             -0.058687626    0              0              11.005728      11.00581       0.2            121.12695    
       300   4.10767e-08    1.829546e-08   1.8070102e-08  2.2535785e-10  0              15.012488      30.008795      0.016180758    0             -0.15228944     0              0              11.005618      11.005834      0.2            121.12601    
       400   1.1255806e-07  4.7280467e-08  4.6685453e-08  5.9501437e-10  0              23.986355      48.18283      -0.21012082     0             -0.26062821     0              0              11.005508      11.005857      0.2            121.12505    
       500   2.9282961e-07  8.8878195e-08  8.7739613e-08  1.1385817e-09  0              32.87947       66.040037     -0.28109678     0             -0.37173227     0              0              11.005398      11.005879      0.2            121.12408    
       600   6.447063e-07   1.4197878e-07  1.4012357e-07  1.8552008e-09  0              41.659456      83.461223     -0.14231108     0             -0.45961089     0              0              11.005288      11.005898      0.2            121.12308    
       700   1.1578989e-06  2.0551053e-07  2.0275734e-07  2.7531903e-09  0              50.233176      100.36692      0.099433449    0             -0.51127872     0              0              11.005178      11.005916      0.2            121.12206    
       800   2.0305847e-06  2.7825796e-07  2.7439313e-07  3.8648307e-09  0              58.453626      116.63918      0.26806673     0             -0.54655774     0              0              11.005068      11.005932      0.2            121.12103    
       900   3.1145805e-06  3.5899497e-07  3.5375438e-07  5.2405841e-09  0              66.205346      132.17545      0.23524365     0             -0.56070223     0              0              11.004958      11.005948      0.2            121.12       
      1000   4.3833377e-06  4.4719376e-07  4.4026591e-07  6.9278528e-09  0              73.538924      147.05181      0.026033048    0             -0.577398       0              0              11.004848      11.005964      0.2            121.11896    
      1100   5.9042288e-06  5.4205156e-07  5.3307194e-07  8.9796188e-09  0              80.543662      161.29204     -0.20471807     0             -0.57969084     0              0              11.004738      11.005978      0.2            121.1179     
      1200   7.6846665e-06  6.4291686e-07  6.3147465e-07  1.1442206e-08  0              87.325947      174.93667     -0.28477168     0             -0.5547566      0              0              11.004628      11.005989      0.2            121.11681    
      1300   9.5895267e-06  7.4917704e-07  7.3479675e-07  1.4380298e-08  0              93.926518      188.00776     -0.1547208      0             -0.54411459     0              0              11.004518      11.005996      0.2            121.11568    
      1400   1.1586742e-05  8.6066307e-07  8.4279604e-07  1.7867032e-08  0              100.3247       200.55751      0.091892183    0             -0.5260811      0              0              11.004408      11.006001      0.2            121.11452    
      1500   1.3683168e-05  9.7694551e-07  9.5491452e-07  2.2030986e-08  0              106.42139      212.57806      0.2647175      0             -0.5301073      0              0              11.004298      11.006004      0.2            121.11334    
      1600   1.5988474e-05  1.0977234e-06  1.0707496e-06  2.6973781e-08  0              112.16172      224.08357      0.23986905     0             -0.57837286     0              0              11.004187      11.006007      0.2            121.11217    
      1700   1.8282913e-05  1.2226395e-06  1.1898579e-06  3.2781646e-08  0              117.57326      235.11253      0.033979075    0             -0.63922614     0              0              11.004077      11.006009      0.2            121.11098    
      1800   2.0507483e-05  1.3515719e-06  1.312047e-06   3.9524902e-08  0              122.78255      245.7657      -0.2006053      0             -0.68321081     0              0              11.003967      11.00601       0.2            121.10977    
      1900   2.2915278e-05  1.4842938e-06  1.4370464e-06  4.7247444e-08  0              127.92291      256.1332      -0.2873685      0             -0.71170541     0              0              11.003857      11.006007      0.2            121.10853    
      2000   2.5287546e-05  1.6205714e-06  1.5645381e-06  5.6033294e-08  0              133.04027      266.23717     -0.15662567     0             -0.72751235     0              0              11.003747      11.006001      0.2            121.10726    
      2100   2.7690196e-05  1.7601531e-06  1.6942048e-06  6.5948312e-08  0              138.09368      276.09843      0.088929472    0             -0.71896584     0              0              11.003637      11.005992      0.2            121.10595    
      2200   2.9974278e-05  1.9030348e-06  1.8259251e-06  7.7109745e-08  0              142.98735      285.70943      0.26526408     0             -0.73117648     0              0              11.003527      11.005982      0.2            121.10463    
      2300   3.2390641e-05  2.0491185e-06  1.9595343e-06  8.9584187e-08  0              147.6593       295.07743      0.24117986     0             -0.75870104     0              0              11.003417      11.005972      0.2            121.1033     
      2400   3.494127e-05   2.1982436e-06  2.0948181e-06  1.0342551e-07  0              152.1206       304.20344      0.037749416    0             -0.80518736     0              0              11.003307      11.005961      0.2            121.10197    
      2500   3.7220127e-05  2.3503179e-06  2.2316243e-06  1.1869352e-07  0              156.46846      313.13216     -0.19523643     0             -0.85129805     0              0              11.003197      11.005949      0.2            121.10062    
      2600   3.947016e-05   2.5054636e-06  2.3700657e-06  1.3539788e-07  0              160.82496      321.93525     -0.28533315     0             -0.88444269     0              0              11.003087      11.005934      0.2            121.09925    
      2700   4.1921153e-05  2.6635096e-06  2.5098823e-06  1.5362725e-07  0              165.21751      330.59623     -0.16121078     0             -0.89369771     0              0              11.002977      11.005916      0.2            121.09784    
      2800   4.4007019e-05  2.8244216e-06  2.6510004e-06  1.7342124e-07  0              169.59426      339.10992      0.078599862    0             -0.89956742     0              0              11.002867      11.005895      0.2            121.0964     
      2900   4.5981497e-05  2.9885737e-06  2.7938188e-06  1.9475484e-07  0              173.86986      347.48094      0.25877403     0             -0.94855215     0              0              11.002757      11.005874      0.2            121.09495    
      3000   4.7915372e-05  3.1558562e-06  2.9380841e-06  2.1777211e-07  0              177.96948      355.69657      0.2423889      0             -1.0257234      0              0              11.002647      11.005852      0.2            121.0935     
      3100   4.9873554e-05  3.3261874e-06  3.0837022e-06  2.4248513e-07  0              181.9058       363.76957      0.04202303     0             -1.122325       0              0              11.002537      11.00583       0.2            121.09205    
      3200   5.2011481e-05  3.4993762e-06  3.2303988e-06  2.6897742e-07  0              185.76092      371.71224     -0.19039243     0             -1.2605013      0              0              11.002427      11.005808      0.2            121.09059    
      3300   5.3988212e-05  3.6755728e-06  3.3784003e-06  2.9717257e-07  0              189.6514       379.58185     -0.27904404     0             -1.4151485      0              0              11.002316      11.005783      0.2            121.0891     
      3400   5.5942725e-05  3.8546671e-06  3.5275486e-06  3.2711845e-07  0              193.60783      387.37405     -0.1583873      0             -1.5666967      0              0              11.002206      11.005755      0.2            121.08759    
      3500   5.8198829e-05  4.0365774e-06  3.6776863e-06  3.5889107e-07  0              197.57099      395.06547      0.07650748     0             -1.7021567      0              0              11.002096      11.005725      0.2            121.08605    
      3600   6.0138682e-05  4.2212342e-06  3.8286241e-06  3.9261007e-07  0              201.43757      402.62132      0.25381192     0             -1.8327644      0              0              11.001986      11.005695      0.2            121.08451    
      3700   6.1809361e-05  4.4088462e-06  3.9805102e-06  4.28336e-07    0              205.14412      410.04618      0.24206532     0             -1.9886934      0              0              11.001876      11.005665      0.2            121.08297    
      3800   6.3418593e-05  4.5995931e-06  4.1335659e-06  4.6602721e-07  0              208.70289      417.35647      0.049303351    0             -2.1650104      0              0              11.001766      11.005636      0.2            121.08144    
      3900   6.5312674e-05  4.7933958e-06  4.2877389e-06  5.0565697e-07  0              212.1966       424.57642     -0.18321336     0             -2.3637971      0              0              11.001656      11.005607      0.2            121.0799     
      4000   6.6975558e-05  4.9900793e-06  4.4427674e-06  5.4731188e-07  0              215.72229      431.71966     -0.27508424     0             -2.5389057      0              0              11.001546      11.005575      0.2            121.07834    
      4100   6.8647013e-05  5.1897755e-06  4.5988755e-06  5.9090004e-07  0              219.33229      438.82783     -0.16325141     0             -2.709402       0              0              11.001436      11.005542      0.2            121.07676    
      4200   7.0368008e-05  5.3924736e-06  4.7560661e-06  6.3640754e-07  0              222.9815       445.89308      0.06991667     0             -2.8892541      0              0              11.001326      11.005506      0.2            121.07516    
      4300   7.2010445e-05  5.5980416e-06  4.9139998e-06  6.8404188e-07  0              226.56212      452.86922      0.25502668     0             -3.0741711      0              0              11.001216      11.005471      0.2            121.07356    
      4400   7.3781968e-05  5.8065174e-06  5.0726416e-06  7.3387578e-07  0              229.98128      459.71493      0.2476325      0             -3.2668458      0              0              11.001106      11.005436      0.2            121.07197    
      4500   7.5064876e-05  6.0180671e-06  5.2322336e-06  7.858335e-07   0              233.25215      466.45112      0.053184571    0             -3.4634883      0              0              11.000996      11.005403      0.2            121.07039    
      4600   7.6331731e-05  6.232873e-06   5.3930924e-06  8.3978053e-07  0              236.47027      473.12514     -0.18460473     0             -3.6536258      0              0              11.000886      11.005369      0.2            121.0688     
      4700   7.7683725e-05  6.4508653e-06  5.5551533e-06  8.9571202e-07  0              239.73857      479.75889     -0.28174571     0             -3.8298347      0              0              11.000776      11.005333      0.2            121.0672     
      4800   7.9308307e-05  6.6718457e-06  5.7181887e-06  9.5365706e-07  0              243.08669      486.34132     -0.16795263     0             -3.9937144      0              0              11.000666      11.005296      0.2            121.06558    
      4900   8.0338071e-05  6.8960902e-06  5.882526e-06   1.0135642e-06  0              246.48691      492.9023       0.071509228    0             -4.1229081      0              0              11.000556      11.005256      0.2            121.06393    
      5000   8.1735007e-05  7.1235345e-06  6.047944e-06   1.0755905e-06  0              249.83088      499.40541      0.25635121     0             -4.2385895      0              0              11.000445      11.005217      0.2            121.06229    
      5100   8.2880453e-05  7.3542461e-06  6.214554e-06   1.1396921e-06  0              253.044        505.83815      0.24984172     0             -4.3329876      0              0              11.000335      11.005178      0.2            121.06065    
      5200   8.4164736e-05  7.5880589e-06  6.3819974e-06  1.2060615e-06  0              256.1188       512.17907      0.058529991    0             -4.4054822      0              0              11.000225      11.005141      0.2            121.05903    
      5300   8.4888846e-05  7.82524e-06    6.5507264e-06  1.2745135e-06  0              259.15414      518.48677     -0.178484       0             -4.4778785      0              0              11.000115      11.005103      0.2            121.0574     
      5400   8.5707345e-05  8.0660188e-06  6.7212318e-06  1.344787e-06   0              262.27433      524.83244     -0.28377504     0             -4.5515836      0              0              11.000005      11.005064      0.2            121.05576    
      5500   8.6723644e-05  8.3100967e-06  6.8929788e-06  1.4171179e-06  0              265.5108       531.19684     -0.17525188     0             -4.6221689      0              0              10.999895      11.005023      0.2            121.0541     
      5600   8.7671323e-05  8.5576201e-06  7.0661444e-06  1.4914758e-06  0              268.80386      537.54849      0.059227078    0             -4.6756723      0              0              10.999785      11.004981      0.2            121.05243    
      5700   8.8730443e-05  8.8084632e-06  7.2404827e-06  1.5679805e-06  0              272.05347      543.85475      0.25218596     0             -4.7297561      0              0              10.999675      11.004939      0.2            121.05075    
      5800   8.9302512e-05  9.0627141e-06  7.4160805e-06  1.6466336e-06  0              275.18042      550.10641      0.25443218     0             -4.7862402      0              0              10.999565      11.004898      0.2            121.04909    
      5900   9.0185815e-05  9.3204947e-06  7.5931606e-06  1.7273341e-06  0              278.18964      556.31193      0.06735078     0             -4.8640557      0              0              10.999455      11.004858      0.2            121.04743    
      6000   9.0894094e-05  9.5818544e-06  7.7717993e-06  1.8100551e-06  0              281.16181      562.4965      -0.17287761     0             -4.9735519      0              0              10.999345      11.004818      0.2            121.04578    
      6100   9.1791457e-05  9.8466752e-06  7.9519333e-06  1.8947419e-06  0              284.20393      568.69423     -0.28636991     0             -5.077614       0              0              10.999235      11.004776      0.2            121.04412    
      6200   9.2871127e-05  1.0114761e-05  8.1333654e-06  1.9813957e-06  0              287.35956      574.90293     -0.18381251     0             -5.1779667      0              0              10.999125      11.004733      0.2            121.04244    
      6300   9.3565315e-05  1.0386205e-05  8.3161174e-06  2.0700878e-06  0              290.59201      581.12991      0.054111661    0             -5.260201       0              0              10.999015      11.004689      0.2            121.04074    
      6400   9.4270063e-05  1.0661089e-05  8.5002684e-06  2.1608202e-06  0              293.7895       587.32676      0.25223095     0             -5.3587846      0              0              10.998905      11.004644      0.2            121.03903    
      6500   9.4836189e-05  1.0939513e-05  8.6859179e-06  2.2535946e-06  0              296.875        593.48386      0.26614098     0             -5.4875456      0              0              10.998795      11.004601      0.2            121.03734    
      6600   9.6001115e-05  1.1221325e-05  8.8727663e-06  2.3485586e-06  0              299.83362      599.58897      0.078261441    0             -5.6401776      0              0              10.998685      11.004558      0.2            121.03567    
      6700   9.6664271e-05  1.15064e-05    9.060612e-06   2.4457876e-06  0              302.73521      605.63677     -0.16634305     0             -5.7848363      0              0              10.998575      11.004516      0.2            121.03399    
      6800   9.7575486e-05  1.1794976e-05  9.2499261e-06  2.5450499e-06  0              305.69694      611.68664     -0.29275272     0             -5.9438998      0              0              10.998464      11.004472      0.2            121.0323     
      6900   9.8447904e-05  1.2086781e-05  9.4404913e-06  2.6462893e-06  0              308.77809      617.75491     -0.19872685     0             -6.1123145      0              0              10.998354      11.004427      0.2            121.03059    
      7000   9.9246797e-05  1.2382017e-05  9.6325365e-06  2.7494808e-06  0              311.93901      623.83565      0.042377067    0             -6.2586769      0              0              10.998244      11.004381      0.2            121.02887    
      7100   9.9973208e-05  1.2680707e-05  9.8258894e-06  2.8548174e-06  0              315.06623      629.88222      0.25023116     0             -6.3830291      0              0              10.998134      11.004334      0.2            121.02715    
      7200   0.00010059584  1.2982745e-05  1.0020213e-05  2.9625321e-06  0              318.06495      635.85778      0.27212787     0             -6.4987867      0              0              10.998024      11.004289      0.2            121.02543    
      7300   0.00010125939  1.3288203e-05  1.0215807e-05  3.0723959e-06  0              320.93075      641.77122      0.090293027    0             -6.5939745      0              0              10.997914      11.004244      0.2            121.02373    
      7400   0.00010195177  1.3597089e-05  1.0412841e-05  3.1842477e-06  0              323.75084      647.66174     -0.16007192     0             -6.6758048      0              0              10.997804      11.0042        0.2            121.02203    
      7500   0.00010255543  1.390948e-05   1.0611384e-05  3.2980954e-06  0              326.63006      653.55182     -0.29169844     0             -6.7748048      0              0              10.997694      11.004155      0.2            121.02032    
      7600   0.00010283807  1.4225471e-05  1.0811645e-05  3.4138259e-06  0              329.63055      659.46429     -0.20319658     0             -6.8740471      0              0              10.997584      11.004107      0.2            121.01859    
      7700   0.00010370216  1.4545004e-05  1.1013408e-05  3.5315969e-06  0              332.71649      665.39572      0.037246303    0             -6.9737974      0              0              10.997474      11.004059      0.2            121.01685    
      7800   0.00010443702  1.4867749e-05  1.1216325e-05  3.6514239e-06  0              335.77652      671.30117      0.25187317     0             -7.0682514      0              0              10.997364      11.004011      0.2            121.01511    
      7900   0.00010461824  1.5194092e-05  1.1420747e-05  3.7733449e-06  0              338.71701      677.15625      0.27777074     0             -7.1593633      0              0              10.997254      11.003963      0.2            121.01338    
      8000   0.00010533031  1.5524065e-05  1.1626731e-05  3.8973336e-06  0              341.52501      682.95657      0.093460826    0             -7.2614997      0              0              10.997144      11.003918      0.2            121.01166    
      8100   0.0001058895   1.5857476e-05  1.1834144e-05  4.0233324e-06  0              344.28938      688.73809     -0.15933487     0             -7.3910633      0              0              10.997034      11.003872      0.2            121.00995    
      8200   0.0001063088   1.6194417e-05  1.2043041e-05  4.1513759e-06  0              347.12153      694.53563     -0.29257321     0             -7.5109398      0              0              10.996924      11.003826      0.2            121.00823    
      8300   0.00010691839  1.6534933e-05  1.2253768e-05  4.2811656e-06  0              350.09375      700.39556     -0.20806463     0             -7.6240621      0              0              10.996814      11.003778      0.2            121.00649    
      8400   0.00010765464  1.6878865e-05  1.2465994e-05  4.4128712e-06  0              353.15357      706.27439      0.03276106     0             -7.7461226      0              0              10.996704      11.003728      0.2            121.00473    
      8500   0.00010827019  1.7226095e-05  1.2679207e-05  4.5468882e-06  0              356.19624      712.14695      0.24554092     0             -7.8667673      0              0              10.996593      11.003679      0.2            121.00298    
      8600   0.00010894833  1.7576701e-05  1.2893349e-05  4.6833518e-06  0              359.12335      717.96675      0.27995689     0             -7.9781348      0              0              10.996483      11.00363       0.2            121.00124    
      8700   0.00010944056  1.793078e-05   1.3108666e-05  4.8221141e-06  0              361.91399      723.72458      0.10339376     0             -8.0991765      0              0              10.996373      11.003583      0.2            120.99951    
      8800   0.00011006728  1.828811e-05   1.3324987e-05  4.9631232e-06  0              364.63256      729.41339     -0.14826783     0             -8.2146937      0              0              10.996263      11.003536      0.2            120.99778    
      8900   0.00011090635  1.8648773e-05  1.3542669e-05  5.1061049e-06  0              367.3989       735.08559     -0.28780007     0             -8.3240408      0              0              10.996153      11.003488      0.2            120.99605    
      9000   0.0001116454   1.9012727e-05  1.3761683e-05  5.2510434e-06  0              370.28629      740.78811     -0.21553558     0             -8.4151415      0              0              10.996043      11.003439      0.2            120.99429    
      9100   0.00011242112  1.9379979e-05  1.3981992e-05  5.3979862e-06  0              373.26333      746.50836      0.018307927    0             -8.4916817      0              0              10.995933      11.003388      0.2            120.99252    
      9200   0.00011283329  1.9750613e-05  1.4203345e-05  5.5472677e-06  0              376.21029      752.1807       0.2398908      0             -8.5522874      0              0              10.995823      11.003337      0.2            120.99075    
      9300   0.00011330247  2.012484e-05   1.4426309e-05  5.6985303e-06  0              379.04948      757.81808      0.28089174     0             -8.6142061      0              0              10.995713      11.003287      0.2            120.98899    
      9400   0.00011376896  2.050253e-05   1.4650434e-05  5.8520955e-06  0              381.75666      763.4013       0.11202692     0             -8.6715776      0              0              10.995603      11.003239      0.2            120.98724    
      9500   0.00011377603  2.0883813e-05  1.4876045e-05  6.0077681e-06  0              384.41583      768.97321     -0.14154103     0             -8.7370912      0              0              10.995493      11.003191      0.2            120.98551    
      9600   0.00011446531  2.1268718e-05  1.5103375e-05  6.165343e-06   0              387.14028      774.56802     -0.28746082     0             -8.8013059      0              0              10.995383      11.003142      0.2            120.98376    
      9700   0.00011490939  2.1657028e-05  1.5332244e-05  6.3247839e-06  0              389.99592      780.21007     -0.21824016     0             -8.8575715      0              0              10.995273      11.003091      0.2            120.98199    
      9800   0.00011530258  2.2048854e-05  1.5562815e-05  6.4860386e-06  0              392.95593      785.8985       0.01335876     0             -8.9251925      0              0              10.995163      11.003039      0.2            120.98021    
      9900   0.00011528074  2.2444455e-05  1.5795192e-05  6.6492636e-06  0              395.90799      791.58426      0.23171962     0             -9.0051796      0              0              10.995053      11.002988      0.2            120.97843    
     10000   0.00011494651  2.2844018e-05  1.6029703e-05  6.8143151e-06  0              398.76673      797.25345      0.28000285     0             -9.0837665      0              0              10.994943      11.002937      0.2            120.97666    
     10100   0.00011546843  2.3247496e-05  1.6266328e-05  6.9811677e-06  0              401.50703      802.89531      0.1187477      0             -9.1530471      0              0              10.994833      11.002888      0.2            120.97491    
     10200   0.00011585787  2.365432e-05   1.6504157e-05  7.1501628e-06  0              404.19482      808.5189      -0.12925863     0             -9.2057181      0              0              10.994722      11.00284       0.2            120.97317    
     10300   0.00011653949  2.4064591e-05  1.6743479e-05  7.3211111e-06  0              406.93024      814.1458      -0.28532127     0             -9.2559877      0              0              10.994612      11.00279       0.2            120.97141    
     10400   0.00011729908  2.4478093e-05  1.6984149e-05  7.4939442e-06  0              409.78473      819.79858     -0.22912399     0             -9.3179485      0              0              10.994502      11.002739      0.2            120.96964    
     10500   0.000117574    2.4894948e-05  1.7226143e-05  7.6688049e-06  0              412.73809      825.4769      -0.000714962    0             -9.3842144      0              0              10.994392      11.002687      0.2            120.96785    
     10600   0.00011818314  2.5315318e-05  1.7469843e-05  7.8454742e-06  0              415.69256      831.15764      0.22748287     0             -9.4515561      0              0              10.994282      11.002634      0.2            120.96607    
     10700   0.00011866764  2.5739051e-05  1.7714815e-05  8.0242353e-06  0              418.54953      836.81213      0.28693365     0             -9.5386107      0              0              10.994172      11.002583      0.2            120.96429    
     10800   0.00011934129  2.6166036e-05  1.7961053e-05  8.2049829e-06  0              421.2703       842.41141      0.12920024     0             -9.6458407      0              0              10.994062      11.002533      0.2            120.96253    
     10900   0.0001199352   2.6596307e-05  1.820838e-05   8.3879275e-06  0              423.93173      847.98961     -0.12614168     0             -9.752484       0              0              10.993952      11.002484      0.2            120.96078    
     11000   0.00012079134  2.7029792e-05  1.845681e-05   8.5729822e-06  0              426.63693      853.56156     -0.28770898     0             -9.8540965      0              0              10.993842      11.002434      0.2            120.95902    
     11100   0.00012128352  2.7466548e-05  1.870662e-05   8.7599278e-06  0              429.45694      859.14764     -0.23376883     0             -9.9252295      0              0              10.993732      11.002383      0.2            120.95725    
     11200   0.00012183114  2.7906574e-05  1.8957537e-05  8.9490375e-06  0              432.37562      864.7535      -0.0022654548   0             -9.9959748      0              0              10.993622      11.002331      0.2            120.95546    
     11300   0.00012224155  2.8350098e-05  1.9209823e-05  9.1402747e-06  0              435.28977      870.35169      0.22784467     0             -10.068063      0              0              10.993512      11.002278      0.2            120.95368    
     11400   0.00012276985  2.8797134e-05  1.9463201e-05  9.3339328e-06  0              438.08972      875.89508      0.2843515      0             -10.133985      0              0              10.993402      11.002227      0.2            120.9519     
     11500   0.00012325406  2.9247523e-05  1.9717631e-05  9.5298917e-06  0              440.74711      881.36473      0.12948841     0             -10.198465      0              0              10.993292      11.002177      0.2            120.95014    
     11600   0.00012377826  2.9701141e-05  1.9972896e-05  9.7282457e-06  0              443.32943      886.786       -0.12714471     0             -10.282599      0              0              10.993182      11.002127      0.2            120.94838    
     11700   0.00012414378  3.0158337e-05  2.0229842e-05  9.928495e-06   0              445.96651      892.22043     -0.28740104     0             -10.359117      0              0              10.993072      11.002076      0.2            120.94661    
     11800   0.00012443033  3.061893e-05   2.0488215e-05  1.0130714e-05  0              448.73019      897.69268     -0.2323098      0             -10.425505      0              0              10.992962      11.002023      0.2            120.94482    
     11900   0.00012490116  3.1083028e-05  2.0748141e-05  1.0334887e-05  0              451.59337      903.19023     -0.0034901349   0             -10.504308      0              0              10.992851      11.001969      0.2            120.94301    
     12000   0.00012541366  3.1550409e-05  2.1009078e-05  1.0541331e-05  0              454.44626      908.66455      0.22796974     0             -10.58007       0              0              10.992741      11.001915      0.2            120.94121    
     12100   0.00012561753  3.2021291e-05  2.1271638e-05  1.0749653e-05  0              457.19326      914.10201      0.28451695     0             -10.678936      0              0              10.992631      11.001862      0.2            120.93941    
     12200   0.00012631277  3.2495769e-05  2.1535718e-05  1.0960051e-05  0              459.81334      919.49827      0.12840993     0             -10.812957      0              0              10.992521      11.00181       0.2            120.93763    
     12300   0.00012691183  3.2973221e-05  2.1800219e-05  1.1173003e-05  0              462.36341      924.85131     -0.12447908     0             -10.962178      0              0              10.992411      11.001759      0.2            120.93586    
     12400   0.00012761635  3.3454073e-05  2.2066028e-05  1.1388046e-05  0              464.97508      930.23581     -0.28564067     0             -11.111287      0              0              10.992301      11.001707      0.2            120.93408    
     12500   0.00012793051  3.393813e-05   2.2332797e-05  1.1605333e-05  0              467.70674      935.64323     -0.22973831     0             -11.235456      0              0              10.992191      11.001653      0.2            120.93228    
     12600   0.00012829636  3.4425719e-05  2.2601239e-05  1.182448e-05   0              470.53686      941.07535     -0.0016259298   0             -11.335696      0              0              10.992081      11.001598      0.2            120.93046    
     12700   0.00012854389  3.4916771e-05  2.2871134e-05  1.2045638e-05  0              473.36679      946.50661      0.22695963     0             -11.412966      0              0              10.991971      11.001543      0.2            120.92864    
     12800   0.00012911984  3.5411306e-05  2.3142463e-05  1.2268843e-05  0              476.10248      951.91998      0.28497663     0             -11.474877      0              0              10.991861      11.001489      0.2            120.92683    
     12900   0.00012927454  3.5909226e-05  2.3414737e-05  1.2494489e-05  0              478.71734      957.30294      0.13173953     0             -11.538229      0              0              10.991751      11.001436      0.2            120.92505    
     13000   0.00012963699  3.6410807e-05  2.3688401e-05  1.2722406e-05  0              481.2746       962.67249     -0.1232864      0             -11.606725      0              0              10.991641      11.001384      0.2            120.92326    
     13100   0.00013028333  3.691555e-05   2.3962977e-05  1.2952572e-05  0              483.87161      968.02931     -0.28609278     0             -11.678992      0              0              10.991531      11.001331      0.2            120.92147    
     13200   0.00013057107  3.7423758e-05  2.4239022e-05  1.3184736e-05  0              486.59022      973.41899     -0.23854234     0             -11.735039      0              0              10.991421      11.001277      0.2            120.91966    
     13300   0.00013113495  3.7935362e-05  2.4516404e-05  1.3418958e-05  0              489.41443      978.83326     -0.0043977672   0             -11.781372      0              0              10.991311      11.001221      0.2            120.91784    
     13400   0.00013073764  3.8450542e-05  2.4795438e-05  1.3655104e-05  0              492.24216      984.25722      0.22709416     0             -11.83716       0              0              10.991201      11.001166      0.2            120.91602    
     13500   0.00013111392  3.8969526e-05  2.5076403e-05  1.3893122e-05  0              494.97487      989.65934      0.29039365     0             -11.894925      0              0              10.991091      11.001111      0.2            120.91421    
     13600   0.00013147797  3.9491965e-05  2.5358514e-05  1.4133451e-05  0              497.57332      995.01091      0.13573418     0             -11.95236       0              0              10.99098       11.001058      0.2            120.91242    
     13700   0.00013188251  4.0017868e-05  2.5642128e-05  1.437574e-05   0              500.1089       1000.3353     -0.11744887     0             -12.024217      0              0              10.99087       11.001006      0.2            120.91063    
     13800   0.00013221348  4.0547223e-05  2.5927501e-05  1.4619722e-05  0              502.70258      1005.687      -0.28185415     0             -12.100181      0              0              10.99076       11.000953      0.2            120.90884    
     13900   0.00013266647  4.1079999e-05  2.6214465e-05  1.4865534e-05  0              505.42791      1011.0895     -0.2336629      0             -12.182558      0              0              10.99065       11.000898      0.2            120.90703    
     14000   0.00013309041  4.1616061e-05  2.6502974e-05  1.5113087e-05  0              508.25286      1016.5166     -0.01090625     0             -12.281806      0              0              10.99054       11.000842      0.2            120.9052     
     14100   0.00013316602  4.2155761e-05  2.679335e-05   1.5362411e-05  0              511.08851      1021.9572      0.21983157     0             -12.40858       0              0              10.99043       11.000785      0.2            120.90336    
     14200   0.00013333726  4.2698979e-05  2.7085132e-05  1.5613846e-05  0              513.82355      1027.3599      0.28720227     0             -12.562418      0              0              10.99032       11.00073       0.2            120.90154    
     14300   0.00013363804  4.3245847e-05  2.7378482e-05  1.5867365e-05  0              516.43002      1032.7205      0.13949772     0             -12.731181      0              0              10.99021       11.000676      0.2            120.89974    
     14400   0.00013397576  4.3796082e-05  2.7672594e-05  1.6123488e-05  0              518.95908      1038.0275     -0.10930698     0             -12.899351      0              0              10.9901        11.000622      0.2            120.89794    
     14500   0.00013439699  4.4349799e-05  2.7967734e-05  1.6382065e-05  0              521.52641      1043.3296     -0.27680189     0             -13.071594      0              0              10.98999       11.000568      0.2            120.89613    
     14600   0.00013492534  4.4906836e-05  2.8264357e-05  1.6642478e-05  0              524.22309      1048.6832     -0.23699555     0             -13.246753      0              0              10.98988       11.000512      0.2            120.89431    
     14700   0.00013527312  4.5467262e-05  2.8562571e-05  1.6904691e-05  0              527.02499      1054.0669     -0.016928294    0             -13.378366      0              0              10.98977       11.000455      0.2            120.89247    
     14800   0.00013579285  4.6030983e-05  2.8861909e-05  1.7169074e-05  0              529.83336      1059.4512      0.21546756     0             -13.487347      0              0              10.98966       11.000398      0.2            120.89064    
     14900   0.00013568461  4.6598244e-05  2.9162374e-05  1.743587e-05   0              532.54035      1064.7954      0.28529161     0             -13.599363      0              0              10.98955       11.000343      0.2            120.88881    
     15000   0.00013631041  4.7168825e-05  2.9463662e-05  1.7705163e-05  0              535.10248      1070.061       0.14391512     0             -13.726162      0              0              10.98944       11.000289      0.2            120.88701    
     15100   0.00013659157  4.7742792e-05  2.9766211e-05  1.7976581e-05  0              537.59035      1075.2871     -0.10635322     0             -13.848887      0              0              10.98933       11.000235      0.2            120.88521    
     15200   0.00013730706  4.8320081e-05  3.006996e-05   1.8250121e-05  0              540.11527      1080.5089     -0.27837709     0             -13.959758      0              0              10.98922       11.000181      0.2            120.8834     
     15300   0.00013786487  4.890062e-05   3.0374786e-05  1.8525835e-05  0              542.75393      1085.7493     -0.24140067     0             -14.065444      0              0              10.98911       11.000125      0.2            120.88158    
     15400   0.00013822614  4.9484457e-05  3.0680659e-05  1.8803798e-05  0              545.4903       1091.0008     -0.020149621    0             -14.17137       0              0              10.988999      11.000068      0.2            120.87974    
     15500   0.00013852667  5.0071709e-05  3.098769e-05   1.9084019e-05  0              548.23643      1096.2558      0.21708908     0             -14.278302      0              0              10.988889      11.000011      0.2            120.8779     
     15600   0.00013879929  5.0662502e-05  3.1296145e-05  1.9366357e-05  0              550.87783      1101.4669      0.28878925     0             -14.39418       0              0              10.988779      10.999954      0.2            120.87607    
     15700   0.00013856099  5.1256929e-05  3.1606396e-05  1.9650533e-05  0              553.39543      1106.6467      0.14420175     0             -14.529797      0              0              10.988669      10.9999        0.2            120.87426    
     15800   0.00013915616  5.1854892e-05  3.1918213e-05  1.9936678e-05  0              555.84605      1111.7999     -0.10780086     0             -14.671232      0              0              10.988559      10.999846      0.2            120.87246    
     15900   0.00013949453  5.2456373e-05  3.2231689e-05  2.0224683e-05  0              558.34342      1116.9673     -0.28043377     0             -14.814063      0              0              10.988449      10.999791      0.2            120.87065    
     16000   0.00013962317  5.3061212e-05  3.2546419e-05  2.0514793e-05  0              560.95615      1122.1554     -0.24306004     0             -14.929795      0              0              10.988339      10.999735      0.2            120.86882    
     16100   0.00013996337  5.3669545e-05  3.2862886e-05  2.080666e-05   0              563.67923      1127.3808     -0.022367608    0             -15.04145       0              0              10.988229      10.999678      0.2            120.86698    
     16200   0.0001402619   5.4281347e-05  3.3181097e-05  2.110025e-05   0              566.42452      1132.6338      0.21525578     0             -15.138974      0              0              10.988119      10.999621      0.2            120.86514    
     16300   0.00014019087  5.4896828e-05  3.3501422e-05  2.1395405e-05  0              569.08939      1137.8885      0.29032551     0             -15.236721      0              0              10.988009      10.999565      0.2            120.86332    
     16400   0.00014049218  5.5515748e-05  3.382324e-05   2.1692508e-05  0              571.63163      1143.1141      0.14914833     0             -15.339358      0              0              10.987899      10.99951       0.2            120.8615     
     16500   0.00014066038  5.6138103e-05  3.4146494e-05  2.1991608e-05  0              574.10562      1148.3167     -0.10543948     0             -15.423853      0              0              10.987789      10.999456      0.2            120.8597     
     16600   0.00014076796  5.6764136e-05  3.4471494e-05  2.2292643e-05  0              576.63625      1153.5535     -0.28097452     0             -15.486414      0              0              10.987679      10.999401      0.2            120.85789    
     16700   0.00014136425  5.7393563e-05  3.4797856e-05  2.2595708e-05  0              579.29057      1158.8306     -0.24946096     0             -15.527837      0              0              10.987569      10.999345      0.2            120.85606    
     16800   0.00014172185  5.8026422e-05  3.5125366e-05  2.2901057e-05  0              582.04581      1164.1225     -0.030872261    0             -15.543213      0              0              10.987459      10.999288      0.2            120.85422    
     16900   0.00014203511  5.866238e-05   3.5453011e-05  2.3209369e-05  0              584.79363      1169.3742      0.2130694      0             -15.566502      0              0              10.987349      10.99923       0.2            120.85237    
     17000   0.00014254511  5.9301876e-05  3.5781723e-05  2.3520153e-05  0              587.44752      1174.5982      0.29684181     0             -15.588578      0              0              10.987239      10.999173      0.2            120.85054    
     17100   0.00014284374  5.9944687e-05  3.6110888e-05  2.3833799e-05  0              589.96221      1179.7682      0.15625244     0             -15.608822      0              0              10.987128      10.999118      0.2            120.84872    
     17200   0.00014340163  6.0590825e-05  3.6440625e-05  2.41502e-05    0              592.39842      1184.8963     -0.099463248    0             -15.630359      0              0              10.987018      10.999063      0.2            120.84691    
     17300   0.00014338531  6.1240439e-05  3.6771725e-05  2.4468714e-05  0              594.87023      1190.0203     -0.27986397     0             -15.64188       0              0              10.986908      10.999008      0.2            120.8451     
     17400   0.00014410176  6.1893401e-05  3.7104321e-05  2.478908e-05   0              597.45874      1195.1699     -0.2523732      0             -15.65917       0              0              10.986798      10.998952      0.2            120.84326    
     17500   0.00014484357  6.2549398e-05  3.7437796e-05  2.5111602e-05  0              600.1546       1200.345      -0.03584153     0             -15.676657      0              0              10.986688      10.998893      0.2            120.84141    
     17600   0.00014520758  6.3208565e-05  3.7772239e-05  2.5436326e-05  0              602.86421      1205.5204      0.20806696     0             -15.716836      0              0              10.986578      10.998835      0.2            120.83956    
     17700   0.00014568397  6.3871068e-05  3.8107288e-05  2.5763779e-05  0              605.46936      1210.6416      0.29714435     0             -15.780746      0              0              10.986468      10.998777      0.2            120.83771    
     17800   0.00014591833  6.4536936e-05  3.8443189e-05  2.6093747e-05  0              607.94144      1215.7199      0.1629754      0             -15.855137      0              0              10.986358      10.998721      0.2            120.83589    
     17900   0.00014643432  6.5206187e-05  3.8780007e-05  2.642618e-05   0              610.33523      1220.7619     -0.091478422    0             -15.936798      0              0              10.986248      10.998666      0.2            120.83407    
     18000   0.0001462776   6.5878839e-05  3.9117785e-05  2.6761054e-05  0              612.75738      1225.7916     -0.27688585     0             -16.009261      0              0              10.986138      10.99861       0.2            120.83225    
     18100   0.00014634461  6.6555252e-05  3.9458069e-05  2.7097183e-05  0              615.31522      1230.8853     -0.25485421     0             -16.07336       0              0              10.986028      10.998553      0.2            120.83041    
     18200   0.00014646666  6.7235298e-05  3.9800679e-05  2.743462e-05   0              618.00204      1236.0485     -0.044400311    0             -16.122166      0              0              10.985918      10.998495      0.2            120.82856    
     18300   0.00014686913  6.7918799e-05  4.0144463e-05  2.7774336e-05  0              620.70699      1241.2144      0.19960536     0             -16.194681      0              0              10.985808      10.998437      0.2            120.82671    
     18400   0.00014701921  6.8605654e-05  4.0489269e-05  2.8116386e-05  0              623.32803      1246.3639      0.29217761     0             -16.286397      0              0              10.985698      10.998379      0.2            120.82487    
     18500   0.00014742046  6.9296054e-05  4.0835156e-05  2.8460897e-05  0              625.81922      1251.4696      0.16878884     0             -16.410425      0              0              10.985588      10.998323      0.2            120.82305    
     18600   0.00014767031  6.9989819e-05  4.1181392e-05  2.8808427e-05  0              628.22161      1256.5237     -0.080467271    0             -16.538556      0              0              10.985478      10.998268      0.2            120.82123    
     18700   0.0001477035   7.0687158e-05  4.1529123e-05  2.9158035e-05  0              630.66779      1261.6063     -0.27076915     0             -16.684575      0              0              10.985368      10.998212      0.2            120.8194     
     18800   0.00014804972  7.1387907e-05  4.1878625e-05  2.9509282e-05  0              633.24169      1266.743      -0.25961054     0             -16.841586      0              0              10.985257      10.998155      0.2            120.81756    
     18900   0.00014830373  7.2092139e-05  4.2230115e-05  2.9862024e-05  0              635.9386       1271.9307     -0.053526225    0             -16.995771      0              0              10.985147      10.998096      0.2            120.8157     
     19000   0.00014828017  7.27999e-05    4.2582898e-05  3.0217003e-05  0              638.65253      1277.1132      0.19186273     0             -17.147526      0              0              10.985037      10.998036      0.2            120.81384    
     19100   0.0001487505   7.3511249e-05  4.2937563e-05  3.0573686e-05  0              641.28424      1282.2771      0.29136102     0             -17.314859      0              0              10.984927      10.997978      0.2            120.81199    
     19200   0.0001491567   7.4225777e-05  4.3293376e-05  3.0932401e-05  0              643.79102      1287.4088      0.17324158     0             -17.489385      0              0              10.984817      10.997921      0.2            120.81015    
     19300   0.00014930229  7.4943712e-05  4.3650997e-05  3.1292715e-05  0              646.228        1292.5312     -0.075158942    0             -17.664926      0              0              10.984707      10.997865      0.2            120.80833    
     19400   0.00014956027  7.5665095e-05  4.4009428e-05  3.1655668e-05  0              648.68124      1297.6297     -0.26720863     0             -17.808135      0              0              10.984597      10.997809      0.2            120.8065     
     19500   0.00014976698  7.6389935e-05  4.4369339e-05  3.2020596e-05  0              651.24582      1302.7531     -0.26148988     0             -17.957874      0              0              10.984487      10.997751      0.2            120.80465    
     19600   0.00015006299  7.7118326e-05  4.4731105e-05  3.2387221e-05  0              653.92908      1307.9178     -0.05958901     0             -18.086137      0              0              10.984377      10.997692      0.2            120.80279    
     19700   0.00015009814  7.7850193e-05  4.5094162e-05  3.2756032e-05  0              656.63207      1313.0757      0.18845503     0             -18.178404      0              0              10.984267      10.997632      0.2            120.80093    
     19800   0.0001503909   7.8585599e-05  4.5458693e-05  3.3126906e-05  0              659.24458      1318.2013      0.28789076     0             -18.240104      0              0              10.984157      10.997574      0.2            120.79908    
     19900   0.00015077518  7.9324332e-05  4.5823923e-05  3.3500409e-05  0              661.72721      1323.2792      0.17519236     0             -18.312909      0              0              10.984047      10.997517      0.2            120.79724    
     20000   0.00015077745  8.0066513e-05  4.6190292e-05  3.3876221e-05  0              664.13992      1328.3481     -0.068236215    0             -18.373266      0              0              10.983937      10.997461      0.2            120.79542    
     20100   0.00015111888  8.0812285e-05  4.6558296e-05  3.425399e-05   0              666.57759      1333.4157     -0.26050471     0             -18.452239      0              0              10.983827      10.997405      0.2            120.79359    
     20200   0.00015152827  8.1561396e-05  4.6927981e-05  3.4633415e-05  0              669.12911      1338.514      -0.25575761     0             -18.518401      0              0              10.983717      10.997347      0.2            120.79175    
     20300   0.00015184846  8.2313819e-05  4.7299231e-05  3.5014588e-05  0              671.8002       1343.6612     -0.060785821    0             -18.550768      0              0              10.983607      10.997288      0.2            120.78989    
     20400   0.00015208983  8.3069616e-05  4.7672126e-05  3.5397489e-05  0              674.51146      1348.8418      0.1811387      0             -18.584474      0              0              10.983497      10.997229      0.2            120.78803    
     20500   0.00015234068  8.3828937e-05  4.8046284e-05  3.5782653e-05  0              677.13966      1353.9927      0.28659862     0             -18.630156      0              0              10.983386      10.997171      0.2            120.78618    
     20600   0.00015284776  8.4591517e-05  4.8420979e-05  3.6170538e-05  0              679.63093      1359.0821      0.17977692     0             -18.692895      0              0              10.983276      10.997114      0.2            120.78434    
     20700   0.00015318534  8.5357352e-05  4.8796595e-05  3.6560757e-05  0              682.03433      1364.1345     -0.065845344    0             -18.75913       0              0              10.983166      10.997057      0.2            120.78251    
     20800   0.00015326749  8.6126639e-05  4.9173354e-05  3.6953285e-05  0              684.45815      1369.1781     -0.26176781     0             -18.82895       0              0              10.983056      10.997001      0.2            120.78068    
     20900   0.0001532861   8.6899538e-05  4.9552477e-05  3.7347061e-05  0              686.9949       1374.2521     -0.26231929     0             -18.892572      0              0              10.982946      10.996943      0.2            120.77883    
     21000   0.00015390934  8.7675892e-05  4.9933067e-05  3.7742826e-05  0              689.64325      1379.3528     -0.066335772    0             -18.967026      0              0              10.982836      10.996883      0.2            120.77697    
     21100   0.00015429406  8.8455522e-05  5.0315006e-05  3.8140516e-05  0              692.31705      1384.4561      0.17805013     0             -19.046546      0              0              10.982726      10.996824      0.2            120.7751     
     21200   0.00015461732  8.923834e-05   5.069772e-05   3.8540619e-05  0              694.90453      1389.5186      0.2904896      0             -19.131673      0              0              10.982616      10.996765      0.2            120.77325    
     21300   0.00015458134  9.0024646e-05  5.1081332e-05  3.8943314e-05  0              697.35822      1394.53        0.18647029     0             -19.231385      0              0              10.982506      10.996708      0.2            120.77141    
     21400   0.00015501342  9.081448e-05   5.1465889e-05  3.9348591e-05  0              699.72278      1399.5007     -0.055190732    0             -19.347361      0              0              10.982396      10.996651      0.2            120.76958    
     21500   0.00015556069  9.1607533e-05  5.1850818e-05  3.9756715e-05  0              702.08773      1404.4371     -0.26159028     0             -19.458061      0              0              10.982286      10.996594      0.2            120.76774    
     21600   0.00015570083  9.2403843e-05  5.2236801e-05  4.0167041e-05  0              704.55638      1409.3804     -0.26768651     0             -19.56021       0              0              10.982176      10.996535      0.2            120.76589    
     21700   0.00015589855  9.3203708e-05  5.2625043e-05  4.0578665e-05  0              707.14798      1414.3712     -0.075275424    0             -19.677067      0              0              10.982066      10.996475      0.2            120.76401    
     21800   0.00015549918  9.4007337e-05  5.3015337e-05  4.0992e-05     0              709.77586      1419.3787      0.17300389     0             -19.788955      0              0              10.981956      10.996415      0.2            120.76214    
     21900   0.00015577336  9.481468e-05   5.3407729e-05  4.140695e-05   0              712.34268      1424.394       0.2913598      0             -19.919482      0              0              10.981846      10.996355      0.2            120.76028    
     22000   0.00015615523  9.5625328e-05  5.3801006e-05  4.1824322e-05  0              714.77484      1429.3586      0.19104498     0             -20.068664      0              0              10.981736      10.996297      0.2            120.75843    
     22100   0.00015627791  9.6439445e-05  5.4196069e-05  4.2243376e-05  0              717.1278       1434.3055     -0.049880939    0             -20.244053      0              0              10.981626      10.996241      0.2            120.7566     
     22200   0.00015647956  9.7257103e-05  5.4591696e-05  4.2665407e-05  0              719.49215      1439.2437     -0.25934567     0             -20.410699      0              0              10.981516      10.996183      0.2            120.75476    
     22300   0.00015668253  9.8078233e-05  5.498882e-05   4.3089413e-05  0              721.98044      1444.2348     -0.27391435     0             -20.572494      0              0              10.981405      10.996125      0.2            120.7529     
     22400   0.00015691287  9.8902667e-05  5.5387075e-05  4.3515591e-05  0              724.59796      1449.2792     -0.083322694    0             -20.719646      0              0              10.981295      10.996064      0.2            120.75103    
     22500   0.00015752531  9.9730385e-05  5.5785153e-05  4.3945232e-05  0              727.24662      1454.3199      0.17334481     0             -20.838242      0              0              10.981185      10.996004      0.2            120.74915    
     22600   0.00015763037  0.00010056144  5.6184192e-05  4.4377244e-05  0              729.81877      1459.3378      0.29975811     0             -20.922359      0              0              10.981075      10.995944      0.2            120.74729    
     22700   0.00015781191  0.00010139603  5.6584605e-05  4.481142e-05   0              732.26721      1464.3327      0.20171822     0             -21.006541      0              0              10.980965      10.995886      0.2            120.74544    
     22800   0.00015805923  0.00010223402  5.6985571e-05  4.5248448e-05  0              734.62926      1469.3064     -0.047864443    0             -21.078358      0              0              10.980855      10.995829      0.2            120.74361    
     22900   0.00015818324  0.00010307556  5.7387664e-05  4.5687892e-05  0              737.01104      1474.2872     -0.26507823     0             -21.115296      0              0              10.980745      10.995772      0.2            120.74177    
     23000   0.00015822475  0.00010392066  5.7791396e-05  4.6129261e-05  0              739.52159      1479.3262     -0.28302416     0             -21.131519      0              0              10.980635      10.995713      0.2            120.73991    
     23100   0.00015797808  0.00010476951  5.8196793e-05  4.6572718e-05  0              742.1674       1484.4223     -0.087495116    0             -21.134172      0              0              10.980525      10.995653      0.2            120.73804    
     23200   0.00015810838  0.0001056219   5.8603888e-05  4.7018007e-05  0              744.85461      1489.5372      0.17205011     0             -21.146181      0              0              10.980415      10.995592      0.2            120.73616    
     23300   0.0001581126   0.00010647805  5.9013048e-05  4.7464998e-05  0              747.46516      1494.6306      0.29976291     0             -21.181289      0              0              10.980305      10.995532      0.2            120.7343     
     23400   0.00015827126  0.00010733762  5.9422849e-05  4.7914767e-05  0              749.93127      1499.6597      0.20282807     0             -21.245846      0              0              10.980195      10.995474      0.2            120.73245    
     23500   0.00015844648  0.00010820064  5.9834093e-05  4.8366551e-05  0              752.3137       1504.6744     -0.047031557    0             -21.332607      0              0              10.980085      10.995416      0.2            120.7306     
     23600   0.00015841578  0.00010906726  6.0246348e-05  4.8820907e-05  0              754.70256      1509.6679     -0.26277575     0             -21.416227      0              0              10.979975      10.995358      0.2            120.72875    
     23700   0.00015854306  0.00010993761  6.0660828e-05  4.927678e-05   0              757.20075      1514.6799     -0.27845065     0             -21.509541      0              0              10.979865      10.995299      0.2            120.72689    
     23800   0.00015879318  0.00011081128  6.1076712e-05  4.9734564e-05  0              759.81662      1519.7196     -0.086348441    0             -21.598363      0              0              10.979755      10.995238      0.2            120.72502    
     23900   0.00015925413  0.0001116884   6.1493838e-05  5.0194566e-05  0              762.47158      1524.7718      0.17131981     0             -21.702442      0              0              10.979645      10.995177      0.2            120.72314    
     24000   0.00015934804  0.00011256888  6.1911283e-05  5.0657601e-05  0              765.04122      1529.7833      0.29913648     0             -21.8245        0              0              10.979534      10.995116      0.2            120.72126    
     24100   0.00015999229  0.00011345254  6.2329323e-05  5.1123215e-05  0              767.46722      1534.7287      0.20576124     0             -21.981577      0              0              10.979424      10.995057      0.2            120.7194     
     24200   0.00016013022  0.0001143396   6.2747892e-05  5.1591712e-05  0              769.77846      1539.6025     -0.045607476    0             -22.148264      0              0              10.979314      10.994999      0.2            120.71755    
     24300   0.00016047908  0.00011523017  6.3167796e-05  5.2062373e-05  0              772.10597      1544.475      -0.26305914     0             -22.307846      0              0              10.979204      10.994941      0.2            120.71571    
     24400   0.00016035907  0.00011612406  6.3589945e-05  5.2534119e-05  0              774.5535       1549.3897     -0.28267739     0             -22.471937      0              0              10.979094      10.994882      0.2            120.71384    
     24500   0.00016042975  0.00011702174  6.4015533e-05  5.3006204e-05  0              777.14659      1554.3824     -0.089234454    0             -22.623847      0              0              10.978984      10.994821      0.2            120.71196    
     24600   0.00016030961  0.00011792309  6.4443498e-05  5.3479589e-05  0              779.79904      1559.4279      0.17015762     0             -22.748222      0              0              10.978874      10.994759      0.2            120.71008    
     24700   0.00016045112  0.00011882795  6.4873114e-05  5.3954838e-05  0              782.37909      1564.4563      0.3019322      0             -22.861266      0              0              10.978764      10.994699      0.2            120.70821    
     24800   0.0001608429   0.00011973628  6.5303841e-05  5.4432435e-05  0              784.82759      1569.4462      0.20902342     0             -22.964936      0              0              10.978654      10.99464       0.2            120.70635    
     24900   0.00016098169  0.0001206479   6.5735356e-05  5.4912546e-05  0              787.17345      1574.3892     -0.042324652    0             -23.054605      0              0              10.978544      10.994582      0.2            120.7045     
     25000   0.00016116158  0.00012156306  6.6168084e-05  5.5394976e-05  0              789.53588      1579.3356     -0.26385269     0             -23.126706      0              0              10.978434      10.994524      0.2            120.70266    
     25100   0.00016118515  0.00012248166  6.6602841e-05  5.5878824e-05  0              792.02067      1584.3271     -0.28578396     0             -23.180163      0              0              10.978324      10.994464      0.2            120.70079    
     25200   0.00016121034  0.00012340386  6.7039586e-05  5.6364274e-05  0              794.63954      1589.3717     -0.09258294     0             -23.197675      0              0              10.978214      10.994404      0.2            120.69891    
     25300   0.00016164703  0.00012432944  6.747711e-05   5.6852328e-05  0              797.30177      1594.4348      0.16870013     0             -23.211426      0              0              10.978104      10.994342      0.2            120.69703    
     25400   0.00016198756  0.00012525846  6.7915269e-05  5.734319e-05   0              799.88156      1599.4596      0.30356178     0             -23.237799      0              0              10.977994      10.994282      0.2            120.69515    
     25500   0.00016241037  0.00012619067  6.8352879e-05  5.7837791e-05  0              802.31983      1604.4277      0.21193653     0             -23.273975      0              0              10.977884      10.994223      0.2            120.6933     
     25600   0.00016254534  0.00012712622  6.8791121e-05  5.8335098e-05  0              804.6604       1609.3592     -0.038430829    0             -23.30804       0              0              10.977774      10.994165      0.2            120.69145    
     25700   0.00016252496  0.00012806541  6.9231094e-05  5.883432e-05   0              807.02287      1614.3062     -0.26044581     0             -23.333007      0              0              10.977663      10.994107      0.2            120.6896     
     25800   0.00016282679  0.00012900795  6.9672581e-05  5.9335372e-05  0              809.49922      1619.2873     -0.28885872     0             -23.364184      0              0              10.977553      10.994047      0.2            120.68774    
     25900   0.00016310385  0.00012995398  7.0115955e-05  5.9838022e-05  0              812.10517      1624.3146     -0.10421311     0             -23.399515      0              0              10.977443      10.993987      0.2            120.68587    
     26000   0.00016329534  0.00013090335  7.0560084e-05  6.0343267e-05  0              814.74682      1629.3348      0.15881252     0             -23.428743      0              0              10.977333      10.993926      0.2            120.68399    
     26100   0.00016388912  0.00013185597  7.100415e-05   6.0851819e-05  0              817.30087      1634.2962      0.3055081      0             -23.454576      0              0              10.977223      10.993865      0.2            120.68211    
     26200   0.00016419598  0.00013281188  7.1448492e-05  6.1363388e-05  0              819.70269      1639.1852      0.2201401      0             -23.517235      0              0              10.977113      10.993805      0.2            120.68025    
     26300   0.0001641272   0.00013377125  7.1893932e-05  6.1877319e-05  0              822.00761      1644.0448     -0.02957437     0             -23.605539      0              0              10.977003      10.993747      0.2            120.6784     
     26400   0.00016415663  0.00013473425  7.2341722e-05  6.2392528e-05  0              824.3264       1648.9106     -0.2577753      0             -23.705029      0              0              10.976893      10.993689      0.2            120.67655    
     26500   0.00016396508  0.00013570107  7.2792762e-05  6.2908308e-05  0              826.77043      1653.8348     -0.29394108     0             -23.806803      0              0              10.976783      10.993629      0.2            120.67468    
     26600   0.00016422821  0.0001366715   7.3245886e-05  6.3425618e-05  0              829.35191      1658.8134     -0.10958165     0             -23.892921      0              0              10.976673      10.993568      0.2            120.6728     
     26700   0.0001643335   0.00013764549  7.3701255e-05  6.3944237e-05  0              831.98074      1663.8068      0.1546735      0             -23.990131      0              0              10.976563      10.993506      0.2            120.67091    
     26800   0.00016462506  0.00013862268  7.41569e-05    6.4465776e-05  0              834.54078      1668.7768      0.30471783     0             -24.086286      0              0              10.976453      10.993446      0.2            120.66904    
     26900   0.0001644085   0.00013960336  7.4613273e-05  6.4990085e-05  0              836.96629      1673.7039      0.22864306     0             -24.200465      0              0              10.976343      10.993386      0.2            120.66718    
     27000   0.00016421692  0.00014058784  7.5071677e-05  6.5516167e-05  0              839.29197      1678.6019     -0.017912376    0             -24.336638      0              0              10.976233      10.993328      0.2            120.66533    
     27100   0.00016433906  0.00014157597  7.5531289e-05  6.6044677e-05  0              841.62398      1683.5003     -0.25232338     0             -24.480537      0              0              10.976123      10.99327       0.2            120.66348    
     27200   0.00016466658  0.00014256746  7.5992477e-05  6.6574983e-05  0              844.06098      1688.4216     -0.29961256     0             -24.612079      0              0              10.976013      10.99321       0.2            120.66161    
     27300   0.00016489349  0.00014356241  7.6454996e-05  6.7107414e-05  0              846.62855      1693.3787     -0.12158128     0             -24.772569      0              0              10.975903      10.993149      0.2            120.65973    
     27400   0.00016538907  0.00014456052  7.6918095e-05  6.7642424e-05  0              849.25355      1698.3569      0.15020194     0             -24.944434      0              0              10.975792      10.993087      0.2            120.65784    
     27500   0.00016550689  0.0001455621   7.7381942e-05  6.8180162e-05  0              851.81313      1703.3179      0.30836163     0             -25.096787      0              0              10.975682      10.993025      0.2            120.65596    
     27600   0.00016556206  0.00014656718  7.7846434e-05  6.8720742e-05  0              854.2333       1708.2318      0.23482266     0             -25.255622      0              0              10.975572      10.992966      0.2            120.65409    
     27700   0.00016572791  0.00014757583  7.8311957e-05  6.926387e-05   0              856.55027      1713.1162     -0.015641221    0             -25.440432      0              0              10.975462      10.992908      0.2            120.65224    
     27800   0.00016613389  0.00014858782  7.8778442e-05  6.9809375e-05  0              858.87251      1717.9991     -0.25406487     0             -25.624146      0              0              10.975352      10.992849      0.2            120.65039    
     27900   0.0001661431   0.00014960336  7.9246574e-05  7.0356781e-05  0              861.31801      1722.934      -0.29802008     0             -25.774654      0              0              10.975242      10.992789      0.2            120.64852    
     28000   0.00016578066  0.00015062253  7.9717471e-05  7.0905056e-05  0              863.90362      1727.9292     -0.12193175     0             -25.903064      0              0              10.975132      10.992728      0.2            120.64664    
     28100   0.00016610653  0.00015164536  8.0190198e-05  7.1455164e-05  0              866.54541      1732.9445      0.1463134      0             -26.013735      0              0              10.975022      10.992666      0.2            120.64475    
     28200   0.00016616949  0.00015267165  8.0664558e-05  7.2007089e-05  0              869.1252       1737.9456      0.30477552     0             -26.112919      0              0              10.974912      10.992605      0.2            120.64287    
     28300   0.00016636225  0.00015370131  8.1139869e-05  7.2561441e-05  0              871.56479      1742.8944      0.23517485     0             -26.22385       0              0              10.974802      10.992545      0.2            120.641      
     28400   0.00016654509  0.00015473461  8.1616413e-05  7.3118195e-05  0              873.89009      1747.7925     -0.012346069    0             -26.327438      0              0              10.974692      10.992486      0.2            120.63915    
     28500   0.00016703017  0.00015577113  8.2093527e-05  7.3677604e-05  0              876.21361      1752.6718     -0.24461131     0             -26.420596      0              0              10.974582      10.992427      0.2            120.63729    
     28600   0.00016707865  0.00015681097  8.2571614e-05  7.4239358e-05  0              878.6281       1757.5516     -0.29541993     0             -26.507742      0              0              10.974472      10.992367      0.2            120.63542    
[...]
    292900   0.00082201256  0.014705399    0.0051010676   0.0096043319   0              6794.3477      13589.981     -1.2851104      0             -253.09792      0              0              10.683589      10.812653      0.2            115.51793    
    293000   0.00082969362  0.014714012    0.0051023264   0.0096116852   0              6794.099       13589.755     -1.556662       0             -252.2405       0              0              10.683479      10.81256       0.2            115.51576    
    293100   0.00083204595  0.014722657    0.0051037749   0.0096188817   0              6794.7693      13590.132     -0.59351744     0             -251.45208      0              0              10.683368      10.812461      0.2            115.5135     
    293200   0.0008311445   0.014731329    0.005105402    0.0096259274   0              6795.9078      13590.97       0.8451554      0             -250.79203      0              0              10.683258      10.812359      0.2            115.51123    
    293300   0.00082808251  0.014740027    0.0051071876   0.0096328392   0              6796.8325      13592.05       1.6153623      0             -250.30832      0              0              10.683148      10.812263      0.2            115.50901    
    293400   0.00082357124  0.014748745    0.0051091181   0.0096396272   0              6797.16        13593.222      1.0982735      0             -250.00289      0              0              10.683038      10.812176      0.2            115.50689    
    293500   0.00081855536  0.014757483    0.005111197    0.0096462864   0              6797.1409      13594.577     -0.29527716     0             -249.85277      0              0              10.682928      10.812096      0.2            115.50485    
    293600   0.00081325759  0.014766241    0.0051134418   0.0096527987   0              6797.4567      13596.368     -1.4545368      0             -249.786        0              0              10.682818      10.812016      0.2            115.5028     
    293700   0.00080635543  0.014775018    0.0051158679   0.0096591496   0              6798.6679      13598.791     -1.4554033      0             -249.73322      0              0              10.682708      10.811929      0.2            115.50068    
    293800   0.00079804393  0.014783816    0.0051184618   0.0096653538   0              6800.7616      13601.821     -0.29804942     0             -249.66807      0              0              10.682598      10.811835      0.2            115.49849    
    293900   0.0007899818   0.014792638    0.005121196    0.009671442    0              6803.1523      13605.203      1.1012468      0             -249.63989      0              0              10.682488      10.811741      0.2            115.4963     
    294000   0.00078107315  0.014801486    0.0051240434   0.0096774425   0              6805.1467      13608.67       1.623152       0             -249.69601      0              0              10.682378      10.811654      0.2            115.49417    
    294100   0.0007706161   0.014810362    0.0051269783   0.0096833836   0              6806.4638      13612.074      0.85320453     0             -249.83037      0              0              10.682268      10.811576      0.2            115.49215    
    294200   0.00075788674  0.014819269    0.0051300087   0.0096892602   0              6807.4794      13615.553     -0.59445199     0             -249.99831      0              0              10.682158      10.811503      0.2            115.49019    
    294300   0.00074437727  0.014828209    0.0051331491   0.0096950594   0              6808.8848      13619.34      -1.5706574      0             -250.15275      0              0              10.682048      10.811429      0.2            115.4882     
    294400   0.00073084417  0.014837182    0.0051364008   0.0097007811   0              6811.1312      13623.561     -1.2983047      0             -250.23011      0              0              10.681938      10.811346      0.2            115.48612    
    294500   0.00071641389  0.014846188    0.0051397461   0.0097064424   0              6814.083       13628.158      0.0081551775   0             -250.22016      0              0              10.681828      10.811257      0.2            115.48399    
    294600   0.00070144148  0.014855228    0.0051431564   0.0097120719   0              6817.0909      13632.873      1.3090821      0             -250.18683      0              0              10.681718      10.811169      0.2            115.48186    
    294700   0.00068621196  0.0148643      0.0051465963   0.0097177039   0              6819.5001      13637.433      1.5666848      0             -250.17929      0              0              10.681608      10.811089      0.2            115.47981    
    294800   0.00067079274  0.014873403    0.0051500442   0.0097233591   0              6821.1756      13641.776      0.57561753     0             -250.19531      0              0              10.681497      10.811017      0.2            115.47785    
    294900   0.00065530256  0.014882536    0.0051535002   0.0097290356   0              6822.578       13646.029     -0.87262303     0             -250.21412      0              0              10.681387      10.810948      0.2            115.47593    
    295000   0.00063994278  0.014891696    0.0051569854   0.0097347111   0              6824.4127      13650.454     -1.6289382      0             -250.20474      0              0              10.681277      10.810875      0.2            115.47395    
    295100   0.00062598578  0.014900883    0.0051604993   0.0097403838   0              6827.048       13655.181     -1.0848027      0             -250.13939      0              0              10.681167      10.810793      0.2            115.47189    
    295200   0.00061120333  0.014910094    0.0051640287   0.0097460655   0              6830.199       13660.076      0.32209751     0             -250.04397      0              0              10.681057      10.810706      0.2            115.46977    
    295300   0.00059704429  0.01491933     0.0051675494   0.0097517802   0              6833.1841      13664.893      1.475038       0             -249.95748      0              0              10.680947      10.810621      0.2            115.46767    
    295400   0.00058296697  0.014928588    0.0051710374   0.0097575502   0              6835.4382      13669.423      1.4538407      0             -249.94753      0              0              10.680837      10.810543      0.2            115.46565    
    295500   0.00057041888  0.014937867    0.005174476    0.0097633911   0              6836.9663      13673.657      0.27585284     0             -250.00199      0              0              10.680727      10.810472      0.2            115.4637     
    295600   0.00055784586  0.014947168    0.0051778866   0.009769281    0              6838.3463      13677.816     -1.1234604      0             -250.06871      0              0              10.680617      10.810403      0.2            115.46177    
    295700   0.00054555026  0.014956489    0.0051812966   0.0097751921   0              6840.2476      13682.126     -1.6309161      0             -250.09851      0              0              10.680507      10.810327      0.2            115.45977    
    295800   0.00053427295  0.01496583     0.0051846997   0.00978113     0              6842.9222      13686.687     -0.84234948     0             -250.07328      0              0              10.680397      10.810242      0.2            115.45768    
    295900   0.00052273935  0.014975191    0.0051880964   0.0097870942   0              6845.9901      13691.362      0.61799222     0             -250.02121      0              0              10.680287      10.810153      0.2            115.45553    
    296000   0.00051213147  0.014984571    0.0051914669   0.0097931041   0              6848.7427      13695.899      1.5865242      0             -249.9762       0              0              10.680177      10.810066      0.2            115.45342    
    296100   0.00050160386  0.01499397     0.0051947919   0.0097991784   0              6850.6858      13700.083      1.288732       0             -249.97807      0              0              10.680067      10.809988      0.2            115.45139    
    296200   0.00049067656  0.015003388    0.0051980719   0.0098053164   0              6851.974       13703.984     -0.036144034    0             -249.99033      0              0              10.679957      10.809917      0.2            115.44944    
    296300   0.00048049507  0.015012825    0.0052013355   0.0098114893   0              6853.2646      13707.862     -1.3324692      0             -249.9819       0              0              10.679847      10.809845      0.2            115.44749    
    296400   0.00047091667  0.015022278    0.0052045956   0.0098176828   0              6855.1927      13711.954     -1.5691344      0             -249.92588      0              0              10.679737      10.809767      0.2            115.44546    
    296500   0.00046177251  0.015031749    0.0052078547   0.0098238942   0              6857.862       13716.284     -0.55991053     0             -249.79282      0              0              10.679626      10.80968       0.2            115.44334    
    296600   0.00045235033  0.015041235    0.005211099    0.0098301364   0              6860.7834      13720.67       0.89703573     0             -249.62522      0              0              10.679516      10.809589      0.2            115.44119    
    296700   0.00044394875  0.015050738    0.0052143002   0.0098364373   0              6863.2408      13724.842      1.6393918      0             -249.49126      0              0              10.679406      10.809504      0.2            115.43908    
    296800   0.00043531859  0.015060255    0.0052174638   0.0098427908   0              6864.8944      13728.71       1.0791029      0             -249.40802      0              0              10.679296      10.809427      0.2            115.43707    
    296900   0.0004261737   0.015069787    0.0052206171   0.0098491695   0              6866.0207      13732.386     -0.34450195     0             -249.34975      0              0              10.679186      10.809356      0.2            115.43513    
    297000   0.00041798806  0.015079333    0.005223775    0.0098555578   0              6867.3249      13736.14      -1.4899437      0             -249.26442      0              0              10.679076      10.809284      0.2            115.43316    
    297100   0.00041044055  0.015088892    0.0052269531   0.0098619393   0              6869.3611      13740.171     -1.4488665      0             -249.10764      0              0              10.678966      10.809204      0.2            115.43112    
    297200   0.00040301359  0.015098465    0.0052301563   0.0098683086   0              6872.1084      13744.473     -0.25671938     0             -248.90734      0              0              10.678856      10.809116      0.2            115.42899    
    297300   0.00039563187  0.01510805     0.0052333564   0.0098746935   0              6874.9875      13748.832      1.142497       0             -248.7375       0              0              10.678746      10.809027      0.2            115.42685    
    297400   0.00038908392  0.015117647    0.0052365353   0.0098811117   0              6877.3081      13752.981      1.63463        0             -248.63769      0              0              10.678636      10.808944      0.2            115.42478    
    297500   0.00038263651  0.015127256    0.0052396808   0.0098875749   0              6878.8209      13756.82       0.82143432     0             -248.62127      0              0              10.678526      10.808869      0.2            115.42279    
    297600   0.00037678685  0.015136876    0.0052428195   0.0098940564   0              6879.9419      13760.528     -0.64404836     0             -248.67206      0              0              10.678416      10.8088        0.2            115.42086    
    297700   0.00037101858  0.015146507    0.0052459661   0.009900541    0              6881.3759      13764.351     -1.5990449      0             -248.7362       0              0              10.678306      10.808726      0.2            115.41889    
    297800   0.0003654148   0.015156149    0.0052491399   0.0099070089   0              6883.587       13768.452     -1.2779653      0             -248.75055      0              0              10.678196      10.808645      0.2            115.41683    
    297900   0.00036040003  0.015165801    0.0052523495   0.0099134513   0              6886.4311      13772.808      0.054649376    0             -248.72617      0              0              10.678086      10.808557      0.2            115.4147     
    298000   0.00035545492  0.015175463    0.0052555522   0.0099199105   0              6889.2363      13777.129      1.3436374      0             -248.68854      0              0              10.677976      10.80847       0.2            115.41258    
    298100   0.00035004691  0.015185134    0.0052587271   0.009926407    0              6891.3657      13781.171      1.5604033      0             -248.71562      0              0              10.677866      10.80839       0.2            115.41053    
    298200   0.00034509232  0.015194815    0.0052618779   0.0099329374   0              6892.7454      13784.956      0.53435653     0             -248.813        0              0              10.677755      10.808318      0.2            115.40858    
    298300   0.00034074342  0.015204506    0.005265016    0.0099394897   0              6893.8735      13788.666     -0.91850206     0             -248.95659      0              0              10.677645      10.808249      0.2            115.40665    
    298400   0.00033637276  0.015214205    0.0052681694   0.0099460357   0              6895.4683      13792.582     -1.6450145      0             -249.07889      0              0              10.677535      10.808176      0.2            115.40468    
    298500   0.0003316864   0.015223913    0.0052713677   0.0099525455   0              6897.895       13796.851     -1.0612668      0             -249.16123      0              0              10.677425      10.808094      0.2            115.40262    
    298600   0.00032765727  0.01523363     0.0052745979   0.0099590319   0              6900.8583      13801.347      0.36928235     0             -249.1975       0              0              10.677315      10.808007      0.2            115.4005     
    298700   0.00032378714  0.015243355    0.0052778289   0.0099655258   0              6903.6564      13805.808      1.5046963      0             -249.26174      0              0              10.677205      10.807922      0.2            115.3984     
    298800   0.00032001264  0.015253088    0.0052810407   0.009972047    0              6905.7299      13810.02       1.4398364      0             -249.39562      0              0              10.677095      10.807845      0.2            115.39639    
    298900   0.00031677486  0.015262828    0.0052842234   0.0099786049   0              6907.1096      13813.987      0.23203872     0             -249.55347      0              0              10.676985      10.807776      0.2            115.39446    
    299000   0.00031307414  0.015272576    0.0052874026   0.0099851739   0              6908.3883      13817.938     -1.1614911      0             -249.73184      0              0              10.676875      10.807707      0.2            115.39254    
    299100   0.00030997757  0.015282332    0.0052905995   0.0099917328   0              6910.2396      13822.108     -1.6291012      0             -249.87856      0              0              10.676765      10.807633      0.2            115.39056    
    299200   0.00030716917  0.015292095    0.0052938213   0.0099982736   0              6912.8893      13826.579     -0.80030298     0             -249.96049      0              0              10.676655      10.80755       0.2            115.38848    
    299300   0.00030448937  0.015301865    0.0052970568   0.010004808    0              6915.934       13831.2        0.66819682     0             -249.99472      0              0              10.676545      10.807463      0.2            115.38636    
    299400   0.00030133448  0.015311641    0.0053002735   0.010011368    0              6918.6455      13835.685      1.6059991      0             -250.00816      0              0              10.676435      10.807379      0.2            115.38428    
    299500   0.00029887698  0.015321424    0.0053034602   0.010017964    0              6920.5783      13839.888      1.2688697      0             -250.07077      0              0              10.676325      10.807304      0.2            115.38229    
    299600   0.00029635727  0.015331214    0.0053066237   0.010024591    0              6921.8861      13843.853     -0.081002467    0             -250.18082      0              0              10.676215      10.807236      0.2            115.38037    
    299700   0.00029413008  0.015341011    0.0053097939   0.010031217    0              6923.2357      13847.84      -1.3683552      0             -250.29628      0              0              10.676105      10.807167      0.2            115.37845    
    299800   0.00029139444  0.015350813    0.0053129953   0.010037818    0              6925.277       13852.12      -1.5660695      0             -250.34909      0              0              10.675995      10.807092      0.2            115.37645    
    299900   0.00028947942  0.015360622    0.005316236    0.010044386    0              6928.0925      13856.703     -0.51773097     0             -250.35053      0              0              10.675885      10.807008      0.2            115.37437    
    300000   0.00028725388  0.015370437    0.0053194927   0.010050944    0              6931.1618      13861.379      0.94464455     0             -250.34554      0              0              10.675774      10.806922      0.2            115.37226    
    300100   0.00028488347  0.015380257    0.005322735    0.010057522    0              6933.7646      13865.87       1.6588904      0             -250.37236      0              0              10.675664      10.806841      0.2            115.3702     
    300137   0.00028438034  0.015383893    0.0053238743   0.010060018    0              6933.1744      13866.941     -0.59241558     0             -250.48686      0              0              10.675624      10.806827      0.2            115.36962    
Loop time of 9.29389 on 1 procs for 300000 steps with 100 atoms

Performance: 27889.299 ns/day, 0.001 hours/ns, 32279.282 timesteps/s, 3.228 Matom-step/s
99.4% CPU use with 1 MPI tasks x 1 OpenMP threads

MPI task timing breakdown:
Section |  min time  |  avg time  |  max time  |%varavg| %total
---------------------------------------------------------------
Pair    | 0          | 0          | 0          |   0.0 |  0.00
Bond    | 5.5226     | 5.5226     | 5.5226     |   0.0 | 59.42
Neigh   | 0          | 0          | 0          |   0.0 |  0.00
Comm    | 1.033      | 1.033      | 1.033      |   0.0 | 11.12
Output  | 0.092193   | 0.092193   | 0.092193   |   0.0 |  0.99
Modify  | 2.5104     | 2.5104     | 2.5104     |   0.0 | 27.01
Other   |            | 0.1356     |            |       |  1.46

Nlocal:            100 ave         100 max         100 min
Histogram: 1 0 0 0 0 0 0 0 0 0
Nghost:            696 ave         696 max         696 min
Histogram: 1 0 0 0 0 0 0 0 0 0
Neighs:              0 ave           0 max           0 min
Histogram: 1 0 0 0 0 0 0 0 0 0

Total # of neighbors = 0
Ave neighs/atom = 0
Ave special neighs/atom = 18.36
Neighbor list builds = 0
Dangerous builds = 0
Total wall time: 0:00:09
