LAMMPS data file.

    100 atoms
    291 bonds
   1436 angles
      0 dihedrals
      0 impropers
      1 atom types
    291 bond types
   1436 angle types
      0 dihedral types
      0 improper types
  -5.477606   5.477606 xlo xhi
  -5.477606   5.477606 ylo yhi
  -0.100000   0.100000 zlo zhi
0.0 0.0 0.0 xy xz yz

Masses # ['atom_id', 'mass']

1 1000000.0

Atoms # ['atomID', 'moleculeID', 'atomType', 'charge', 'x', 'y', 'z']

     62      1      1   0.000000  -5.002272  -5.067581   0.000000
     29      1      1   0.000000  -3.898255  -4.500339   0.000000
     48      1      1   0.000000  -2.952346  -5.193503   0.000000
      8      1      1   0.000000  -1.803225  -4.539526   0.000000
      6      1      1   0.000000   0.341868  -4.604626   0.000000
     91      1      1   0.000000   1.251278  -5.075524   0.000000
     68      1      1   0.000000   2.073931  -4.528580   0.000000
     79      1      1   0.000000   2.837612  -5.093267   0.000000
     84      1      1   0.000000   3.718486  -4.866687   0.000000
     45      1      1   0.000000   4.742787  -5.291370   0.000000
     82      1      1   0.000000   5.216130  -4.390748   0.000000
     74      1      1   0.000000  -4.854327  -4.004616   0.000000
     98      1      1   0.000000  -4.010177  -3.448034   0.000000
     10      1      1   0.000000  -2.859591  -3.561090   0.000000
     25      1      1   0.000000  -1.499946  -3.158614   0.000000
     69      1      1   0.000000  -0.690067  -4.141150   0.000000
     38      1      1   0.000000  -0.051425  -3.293147   0.000000
     67      1      1   0.000000   1.235180  -3.938036   0.000000
     54      1      1   0.000000   3.054997  -4.083462   0.000000
      9      1      1   0.000000   4.238699  -3.947291   0.000000
     86      1      1   0.000000   5.266835  -3.563101   0.000000
     31      1      1   0.000000  -4.919779  -2.850984   0.000000
     49      1      1   0.000000  -3.699530  -2.498850   0.000000
     56      1      1   0.000000  -2.569787  -2.421426   0.000000
     96      1      1   0.000000  -0.627633  -2.400234   0.000000
     76      1      1   0.000000   0.973525  -2.989369   0.000000
     21      1      1   0.000000   2.201406  -3.200132   0.000000
     52      1      1   0.000000   3.503340  -2.963128   0.000000
     32      1      1   0.000000   4.720005  -2.725309   0.000000
     88      1      1   0.000000  -4.452998  -1.914771   0.000000
     50      1      1   0.000000   5.451901  -1.667421   0.000000
     97      1      1   0.000000  -3.611557  -1.537352   0.000000
     47      1      1   0.000000  -2.598599  -1.289484   0.000000
     61      1      1   0.000000  -1.603358  -1.872757   0.000000
     40      1      1   0.000000  -0.542269  -1.408682   0.000000
     63      1      1   0.000000   0.334061  -2.203026   0.000000
     59      1      1   0.000000   0.527908  -1.058423   0.000000
      3      1      1   0.000000   1.449171  -1.940979   0.000000
     35      1      1   0.000000   2.816319  -2.019829   0.000000
     23      1      1   0.000000   4.026938  -1.728080   0.000000
     51      1      1   0.000000  -4.438241  -1.010525   0.000000
     26      1      1   0.000000  -5.333660  -0.368232   0.000000
     94      1      1   0.000000  -3.478541  -0.647270   0.000000
     13      1      1   0.000000  -1.527976  -0.591714   0.000000
     36      1      1   0.000000  -0.312162  -0.165233   0.000000
     92      1      1   0.000000   1.487277  -0.818123   0.000000
     78      1      1   0.000000   2.269318  -1.111117   0.000000
     85      1      1   0.000000   3.068013  -0.913177   0.000000
     53      1      1   0.000000   2.200676  -0.034135   0.000000
     83      1      1   0.000000   3.862836  -0.673421   0.000000
     99      1      1   0.000000   4.730740  -0.894585   0.000000
     19      1      1   0.000000  -4.227194   0.175631   0.000000
     87      1      1   0.000000  -3.517023   1.041553   0.000000
      4      1      1   0.000000  -2.675177   0.199141   0.000000
      7      1      1   0.000000  -1.268897   0.880629   0.000000
     64      1      1   0.000000  -0.077571   0.934123   0.000000
      5      1      1   0.000000   0.985597   0.098135   0.000000
    100      1      1   0.000000   1.812920   0.871150   0.000000
     60      1      1   0.000000   2.682932   0.915727   0.000000
     70      1      1   0.000000   3.315845   0.075082   0.000000
     17      1      1   0.000000   5.429951   1.007921   0.000000
     41      1      1   0.000000   4.489324   0.122638   0.000000
     77      1      1   0.000000  -4.314131   1.277143   0.000000
     11      1      1   0.000000  -3.644983   2.162433   0.000000
     46      1      1   0.000000  -2.531987   1.548558   0.000000
     39      1      1   0.000000  -1.363790   2.230052   0.000000
     28      1      1   0.000000  -0.285537   1.896840   0.000000
     72      1      1   0.000000   0.887005   1.404367   0.000000
     73      1      1   0.000000   1.876693   1.775258   0.000000
     33      1      1   0.000000   3.000422   2.033900   0.000000
     18      1      1   0.000000   3.930977   1.269351   0.000000
     95      1      1   0.000000   4.841543   2.094637   0.000000
     44      1      1   0.000000  -5.035337   2.169940   0.000000
     37      1      1   0.000000  -2.380596   2.772196   0.000000
     89      1      1   0.000000  -3.350881   3.161037   0.000000
     30      1      1   0.000000  -0.370608   3.077173   0.000000
     22      1      1   0.000000   0.885727   2.589401   0.000000
     65      1      1   0.000000   2.127560   2.829419   0.000000
     90      1      1   0.000000   3.082666   3.038708   0.000000
     71      1      1   0.000000   4.023624   2.594001   0.000000
     12      1      1   0.000000   5.074369   3.291288   0.000000
      2      1      1   0.000000  -4.488794   3.347306   0.000000
     80      1      1   0.000000  -3.450095   3.919367   0.000000
     55      1      1   0.000000  -2.582358   3.952088   0.000000
     34      1      1   0.000000  -1.418677   3.619147   0.000000
     58      1      1   0.000000  -0.511429   4.275612   0.000000
     81      1      1   0.000000   0.342864   3.766301   0.000000
     42      1      1   0.000000   1.418511   3.834997   0.000000
     27      1      1   0.000000   2.577172   3.916161   0.000000
     43      1      1   0.000000   3.823934   3.696029   0.000000
     20      1      1   0.000000  -5.242948   4.649913   0.000000
     57      1      1   0.000000  -4.074580   5.342624   0.000000
     66      1      1   0.000000  -4.070903   4.440455   0.000000
     93      1      1   0.000000  -3.128776   4.785825   0.000000
     24      1      1   0.000000  -1.864702   4.896618   0.000000
     16      1      1   0.000000  -0.727920   5.470095   0.000000
     14      1      1   0.000000   0.577339   4.889494   0.000000
     15      1      1   0.000000   1.978007   5.088435   0.000000
      1      1      1   0.000000   3.483224   4.969008   0.000000
     75      1      1   0.000000   4.578324   4.462813   0.000000

Bond Coeffs # ['bondID', 'bondCoeff', 'd']

      1   0.544850   1.354758
      2   0.517998   1.389428
      3   1.024689   0.987879
      4   0.483256   1.438504
      5   0.507021   1.404388
      6   0.797344   1.119895
      7   1.016799   0.991705
      8   0.682592   1.210374
      9   0.517293   1.390374
     10   0.788668   1.126038
     11   0.657871   1.232905
     12   0.723159   1.175934
     13   0.602377   1.288444
     14   1.450901   0.830197
     15   0.864259   1.075668
     16   0.937240   1.032939
     17   0.890017   1.059988
     18   0.914893   1.045478
     19   0.550570   1.347702
     20   0.868037   1.073324
     21   0.608786   1.281645
     22   0.549591   1.348901
     23   0.861608   1.077321
     24   0.500276   1.413823
     25   0.823509   1.101960
     26   0.916412   1.044611
     27   0.530745   1.372641
     28   0.520911   1.385537
     29   0.572689   1.321420
     30   0.762114   1.145486
     31   0.718297   1.179908
     32   0.607255   1.283260
     33   0.759172   1.147704
     34   1.031039   0.984833
     35   0.780021   1.132262
     36   0.420577   1.541975
     37   0.913761   1.046125
     38   0.638615   1.251354
     39   0.656644   1.234056
     40   0.875934   1.068475
     41   1.100277   0.953342
     42   0.431915   1.521601
     43   0.973472   1.013534
     44   0.678055   1.214416
     45   0.657804   1.232967
     46   1.010904   0.994592
     47   0.712095   1.185034
     48   0.432648   1.520313
     49   0.515060   1.393385
     50   0.993164   1.003436
     51   0.703176   1.192527
     52   0.672865   1.219091
     53   0.472520   1.454755
     54   0.517438   1.390179
     55   0.764134   1.143971
     56   0.678583   1.213943
     57   0.593507   1.298037
     58   0.830171   1.097529
     59   0.863823   1.075939
     60   0.665112   1.226175
     61   0.963320   1.018860
     62   1.709672   0.764793
     63   0.809703   1.111315
     64   0.741244   1.161500
     65   0.796476   1.120504
     66   1.454394   0.829199
     67   1.009631   0.995219
     68   0.612326   1.277935
     69   0.949073   1.026479
     70   0.508145   1.402833
     71   0.844706   1.088046
     72   0.618282   1.271764
     73   0.792231   1.123502
     74   0.888914   1.060645
     75   0.518292   1.389034
     76   0.791379   1.124107
     77   0.716980   1.180991
     78   1.040634   0.980282
     79   1.088900   0.958310
     80   0.660529   1.230422
     81   0.752138   1.153058
     82   0.910868   1.047786
     83   0.680494   1.212238
     84   0.618965   1.271063
     85   0.546464   1.352755
     86   0.631471   1.258413
     87   0.797420   1.119841
     88   0.722983   1.176078
     89   0.594295   1.297176
     90   0.555711   1.341454
     91   0.807984   1.112496
     92   0.582763   1.309947
     93   1.022355   0.989006
     94   0.812019   1.109729
     95   0.851652   1.083600
     96   0.441397   1.505169
     97   0.999007   1.000497
     98   0.515214   1.393177
     99   0.823619   1.101886
    100   0.669383   1.222257
    101   0.409492   1.562706
    102   0.595311   1.296069
    103   0.500080   1.414101
    104   0.785139   1.128565
    105   0.734941   1.166471
    106   0.915206   1.045299
    107   1.045992   0.977768
    108   0.447444   1.494963
    109   1.030850   0.984923
    110   0.860780   1.077839
    111   0.625095   1.264815
    112   0.579745   1.313353
    113   0.564578   1.330877
    114   0.545300   1.354198
    115   0.779841   1.132393
    116   0.753117   1.152309
    117   0.567125   1.327886
    118   0.866388   1.074345
    119   0.688939   1.204785
    120   0.456572   1.479945
    121   0.649091   1.241216
    122   0.727156   1.172698
    123   0.616796   1.273295
    124   0.555563   1.341631
    125   0.570274   1.324214
    126   0.892958   1.058241
    127   0.745559   1.158135
    128   0.748463   1.155885
    129   0.742009   1.160902
    130   0.814763   1.107858
    131   1.522220   0.810515
    132   0.542026   1.358282
    133   0.748149   1.156128
    134   0.507489   1.403739
    135   1.018797   0.990732
    136   1.122869   0.943703
    137   1.002554   0.998725
    138   0.578905   1.314306
    139   0.895221   1.056902
    140   0.628981   1.260902
    141   0.754511   1.151244
    142   0.509941   1.400361
    143   0.868405   1.073096
    144   0.617845   1.272214
    145   0.575852   1.317785
    146   0.894975   1.057048
    147   0.804927   1.114607
    148   0.704377   1.191509
    149   0.714829   1.182766
    150   0.546711   1.352449
    151   0.574273   1.319595
    152   0.623879   1.266047
    153   0.689433   1.204353
    154   0.966022   1.017435
    155   0.571035   1.323331
    156   0.687059   1.206432
    157   0.487703   1.431931
    158   0.696843   1.197933
    159   0.543056   1.356993
    160   0.781433   1.131238
    161   0.734319   1.166964
    162   0.561475   1.334549
    163   0.497359   1.417964
    164   0.819078   1.104937
    165   0.747809   1.156391
    166   0.953498   1.024095
    167   1.208784   0.909548
    168   0.730136   1.170302
    169   1.073086   0.965345
    170   0.644863   1.245278
    171   0.978117   1.011124
    172   0.662152   1.228913
    173   0.813307   1.108850
    174   0.540102   1.360699
    175   0.797231   1.119974
    176   0.885497   1.062690
    177   0.604303   1.286390
    178   0.983861   1.008168
    179   1.228619   0.902176
    180   0.858663   1.079167
    181   0.554119   1.343379
    182   0.705435   1.190615
    183   0.757101   1.149273
    184   0.650690   1.239689
    185   0.582522   1.310219
    186   0.660259   1.230673
    187   0.654805   1.235788
    188   0.625345   1.264562
    189   0.489829   1.428820
    190   0.842647   1.089374
    191   0.592415   1.299233
    192   1.032597   0.984090
    193   0.720038   1.178480
    194   1.326194   0.868353
    195   1.170968   0.924118
    196   1.037618   0.981705
    197   0.619961   1.270041
    198   0.450072   1.490593
    199   1.016324   0.991937
    200   0.711161   1.185812
    201   0.628822   1.261061
    202   0.662739   1.228368
    203   0.748979   1.155487
    204   0.614390   1.275787
    205   1.246618   0.895640
    206   0.747963   1.156272
    207   0.934060   1.034696
    208   0.610107   1.280256
    209   0.788525   1.126140
    210   0.491594   1.426254
    211   1.317683   0.871153
    212   1.234660   0.899966
    213   1.222675   0.904366
    214   0.572028   1.322182
    215   0.868220   1.073211
    216   0.599339   1.291706
    217   0.705038   1.190950
    218   0.999082   1.000459
    219   0.646368   1.243827
    220   0.776380   1.134913
    221   1.108548   0.949779
    222   0.862206   1.076947
    223   0.614740   1.275423
    224   0.640095   1.249907
    225   0.923220   1.040752
    226   0.586846   1.305383
    227   0.759565   1.147407
    228   0.686773   1.206683
    229   0.697020   1.197781
    230   0.919521   1.042844
    231   0.649637   1.240694
    232   0.887332   1.061590
    233   1.072712   0.965514
    234   0.676547   1.215769
    235   1.175824   0.922208
    236   0.443897   1.500924
    237   0.616847   1.273243
    238   0.697909   1.197018
    239   0.855818   1.080959
    240   1.006350   0.996840
    241   0.751477   1.153565
    242   0.517772   1.389731
    243   1.447424   0.831193
    244   0.752071   1.153110
    245   0.607961   1.282514
    246   0.464830   1.466739
    247   1.217318   0.906354
    248   1.163528   0.927068
    249   0.497719   1.417451
    250   0.975184   1.012644
    251   0.779957   1.132309
    252   0.662546   1.228548
    253   0.710647   1.186241
    254   0.896130   1.056366
    255   0.974473   1.013013
    256   0.830105   1.097573
    257   0.546188   1.353097
    258   0.785702   1.128161
    259   0.875041   1.069020
    260   0.877781   1.067350
    261   0.482336   1.439876
    262   0.922760   1.041012
    263   0.644284   1.245838
    264   0.490004   1.428565
    265   0.949688   1.026147
    266   1.433829   0.835125
    267   1.476899   0.822857
    268   0.734316   1.166967
    269   0.499639   1.414725
    270   0.485283   1.435497
    271   0.438608   1.509948
    272   0.715398   1.182296
    273   0.472603   1.454628
    274   0.533431   1.369181
    275   0.734586   1.166753
    276   0.840300   1.090894
    277   0.546687   1.352480
    278   0.740131   1.162373
    279   0.724997   1.174443
    280   0.858855   1.079046
    281   0.621057   1.268920
    282   0.533245   1.369419
    283   0.950349   1.025790
    284   0.415057   1.552195
    285   0.714069   1.183395
    286   0.576959   1.316521
    287   0.628806   1.261077
    288   0.903128   1.052265
    289   0.600918   1.290008
    290   0.553194   1.344501
    291   0.881206   1.065274

Bonds # ['ID', 'type', 'atom1', 'atom2']

         1         1        22        42
         2         2        26        17
         3         3        91        68
         4         4        45         1
         5         5        44        12
         6         6        19        87
         7         7        48        93
         8         8        55        34
         9         9        11        44
        10        10        40        59
        11        11        26        19
        12        12        10        56
        13        13        13        36
        14        14        85        83
        15        15        43        75
        16        16        79        54
        17        17        92        53
        18        18        99        41
        19        19        30        22
        20        20        82         9
        21        21        37        34
        22        22        42        14
        23        23        68        54
        24        24         8        25
        25        25        51        26
        26        26        92         5
        27        27        42        15
        28        28         6        16
        29        29        31        32
        30        30        63         3
        31        31        30        34
        32        32        61        13
        33        33        77        44
        34        34        53       100
        35        35         5       100
        36        36        19        17
        37        37        31        88
        38        38        50        51
        39        39        26        41
        40        40       100        72
        41        41        49        88
        42        42        17        18
        43        43        76        63
        44        44        32        23
        45        45        46        37
        46        46        58        81
        47        47        72        22
        48        48         8        24
        49        49        13         4
        50        50        66        93
        51        51         7        64
        52        52        95        12
        53        53        25        38
        54        54        39        34
        55        55        84         1
        56        56        58        16
        57        57        44         2
        58        58        57        93
        59        59        62        57
        60        60        59        36
        61        61        85        70
        62        62        89        80
        63        63        56        61
        64        64        42        27
        65        65        53        70
        66        66        82        86
        67        67        96        40
        68        68        47        13
        69        69        84        54
        70        70        45        20
        71        71        98        31
        72        72        28        72
        73        73         3        92
        74        74        35        78
        75        75        27         1
        76        76        36        64
        77        77        33        65
        78        78        97        51
        79        79        95        71
        80        80        65        42
        81        81        89         2
        82        82        86        31
        83        83        45        75
        84        84        11        46
        85        85         7        39
        86        86        23        85
        87        87        34        58
        88        88        65        27
        89        89        60        18
        90        90        52        23
        91        91        94        19
        92        92         5        72
        93        93        59        92
        94        94        77        11
        95        95        73        65
        96        96         2        20
        97        97        62        82
        98        98        12         2
        99        99        79         1
       100       100        53         5
       101       101         4         7
       102       102        22        81
       103       103         7        28
       104       104        39        28
       105       105        33        71
       106       106        37        89
       107       107        65        90
       108       108        13         7
       109       109        64        28
       110       110        81        42
       111       111        22        65
       112       112         9        32
       113       113        21        35
       114       114        10        49
       115       115        49        56
       116       116        39        37
       117       117        18        71
       118       118        91        15
       119       119        51        19
       120       120         6        14
       121       121        62        29
       122       122        29        48
       123       123        25        69
       124       124        68        15
       125       125        36         5
       126       126        29        98
       127       127        61        40
       128       128        25        96
       129       129        63        59
       130       130        87        46
       131       131        80        66
       132       132        20        57
       133       133        98        10
       134       134        11        37
       135       135        90        43
       136       136        74        86
       137       137        98        49
       138       138        12        43
       139       139        72        73
       140       140        62        20
       141       141        76         3
       142       142        29        10
       143       143        64        72
       144       144        12        75
       145       145        43         1
       146       146        50        99
       147       147         6        67
       148       148        54         9
       149       149        40        63
       150       150        46        39
       151       151        31        50
       152       152        27        43
       153       153        33        18
       154       154        45        82
       155       155        21        52
       156       156         1        75
       157       157         8        16
       158       158        48        57
       159       159         4        46
       160       160         6        69
       161       161        94         4
       162       162        68        21
       163       163        10        25
       164       164        19        77
       165       165        79        15
       166       166         6        91
       167       167        79        84
       168       168         2        66
       169       169        82        74
       170       170        35        23
       171       171        74        98
       172       172        18        95
       173       173        84        45
       174       174        28        22
       175       175        71        43
       176       176        38        96
       177       177        32        50
       178       178        33        90
       179       179        57        66
       180       180        78        53
       181       181        70        18
       182       182        20        66
       183       183        20        75
       184       184        52        32
       185       185        50        26
       186       186        62        45
       187       187        17        95
       188       188        40        36
       189       189         7        46
       190       190        47        94
       191       191        25        56
       192       192        67        76
       193       193        60        73
       194       194        80        55
       195       195        80        93
       196       196        96        63
       197       197        31        49
       198       198        47         4
       199       199        30        81
       200       200         2        80
       201       201        71        12
       202       202        54        21
       203       203        74        31
       204       204        59         3
       205       205        83        99
       206       206        38        63
       207       207        26        99
       208       208        40        13
       209       209        29        57
       210       210        50        23
       211       211       100        60
       212       212        97        94
       213       213        88        51
       214       214        48         8
       215       215        62        74
       216       216        17        41
       217       217        87         4
       218       218        86        32
       219       219        59         5
       220       220        35        85
       221       221        68        79
       222       222        29        74
       223       223        41        18
       224       224        58        14
       225       225        90        71
       226       226        39        30
       227       227        81        14
       228       228        30        58
       229       229        91        14
       230       230        97        47
       231       231        17        77
       232       232        69        38
       233       233        49        97
       234       234        67        21
       235       235        88        97
       236       236        12        20
       237       237        24        16
       238       238        37        55
       239       239        95        44
       240       240        55        93
       241       241        47        61
       242       242        48        24
       243       243        87        77
       244       244        73        33
       245       245        73        22
       246       246        21         3
       247       247       100        73
       248       248        83        70
       249       249        36         7
       250       250        90        27
       251       251        56        47
       252       252         9        52
       253       253        55        24
       254       254        84         9
       255       255        83        41
       256       256         9        86
       257       257        34        24
       258       258        87        11
       259       259        38        76
       260       260        23        83
       261       261         8        10
       262       262        11        89
       263       263        76        21
       264       264        16        14
       265       265        51        94
       266       266        92        78
       267       267        78        85
       268       268        52        35
       269       269        14        15
       270       270        45         9
       271       271        15         1
       272       272         8        69
       273       273        11         2
       274       274         6        38
       275       275         3        78
       276       276        23        99
       277       277        64         5
       278       278        60        33
       279       279        70        41
       280       280        88        50
       281       281        93        24
       282       282         3        35
       283       283        68        67
       284       284        19         4
       285       285        28        30
       286       286        27        15
       287       287        17        44
       288       288        60        70
       289       289        25        61
       290       290        69        16
       291       291        53        60

Angle Coeffs # ['angleID', 'energy', 'value (deg)']

    636   0.010000 141.584528
    541   0.010000 105.023302
   1069   0.010000  52.696085
    722   0.010000 112.910142
   1291   0.010000  54.720081
    863   0.010000 154.240502
   1132   0.010000  96.925619
    691   0.010000 165.398559
   1147   0.010000  48.099464
   1005   0.010000 150.037241
   1255   0.010000 127.085279
    366   0.010000 115.006504
    652   0.010000  45.947826
    482   0.010000  64.878245
    209   0.010000  77.202540
   1130   0.010000  66.701892
    841   0.010000 102.967864
     20   0.010000  53.797824
   1246   0.010000 130.451725
   1108   0.010000 145.374793
    328   0.010000  88.910645
    282   0.010000  49.377207
    677   0.010000  83.196731
    502   0.010000 164.625343
    442   0.010000 109.024490
    432   0.010000 160.655979
    420   0.010000  56.666550
    910   0.010000 120.862885
    622   0.010000  73.994364
     13   0.010000  68.518922
   1365   0.010000  99.163617
    103   0.010000  64.156281
    479   0.010000  67.163405
    149   0.010000 120.653935
    922   0.010000 169.106894
   1123   0.010000 127.569541
    676   0.010000  74.360943
    670   0.010000 132.953563
    995   0.010000  53.213581
    219   0.010000  58.322316
    370   0.010000  57.441824
    555   0.010000 170.846203
    620   0.010000 120.979838
    710   0.010000 134.131021
    842   0.010000 105.901088
    108   0.010000  79.348496
   1413   0.010000  50.207995
   1198   0.010000 111.292505
    998   0.010000 156.749179
   1310   0.010000  79.211492
    183   0.010000  61.123614
     19   0.010000 165.071429
   1208   0.010000  60.813033
     59   0.010000  53.469508
   1163   0.010000  38.140145
    645   0.010000 178.735187
    694   0.010000 155.531892
   1318   0.010000  70.101354
   1117   0.010000 119.898366
     91   0.010000 178.618877
    920   0.010000 169.795998
    621   0.010000  66.482465
    752   0.010000 111.832481
   1196   0.010000 123.625958
    935   0.010000 171.932640
    310   0.010000  80.851754
     56   0.010000 176.811060
    373   0.010000 106.040711
     89   0.010000  60.114609
    196   0.010000  91.505525
    799   0.010000  83.032144
    312   0.010000  69.697969