LAMMPS (23 Jun 2022 - Update 4)
OMP_NUM_THREADS environment is not set. Defaulting to 1 thread. (src/comm.cpp:98)
  using 1 OpenMP thread(s) per MPI task

variable dt equal 0.01
variable strain equal 0.02
variable srate equal 1e-05
variable M equal 1000 # averaging time for properties
variable strainsteps equal ${strain}/${dt}/${srate}
variable strainsteps equal 0.02/${dt}/${srate}
variable strainsteps equal 0.02/0.01/${srate}
variable strainsteps equal 0.02/0.01/1e-05


dimension 2
include init.mod

# NOTE: This script can be modified for different atomic structures,
# units, etc. See in.elastic for more info.
#

# Define the finite deformation size. Try several values of this
# variable to verify that results do not depend on it.
# variable up equal 1.0e-1

# Define the amount of random jiggle for atoms
# This prevents atoms from staying on saddle points
# variable atomjiggle equal 1.0e-6

# Uncomment one of these blocks, depending on what units
# you are using in LAMMPS and for output

# metal units, elastic constants in eV/A^3
#units		metal
#variable cfac equal 6.2414e-7
#variable cunits string eV/A^3

# Choose potential
# metal units, elastic constants in GPa
units		metal
atom_style	full
#pair_style      lj/cut 1.0
#pair_style      yukawa 1.0 2.0
#pair_modify     mix arithmetic
bond_style      harmonic
angle_style     harmonic
dihedral_style  zero
special_bonds   amber
variable cfac equal 1.0e-4
variable cunits string GPa
boundary	p p p

# Need to set mass to something, just to satisfy LAMMPS
#mass 1 1.0e-20
read_data network.lmp
Reading data file ...
  triclinic box = (-9.483836 -9.483836 -0.1) to (9.483836 9.483836 0.1) with tilt (0 0 0)
  1 by 1 by 1 MPI processor grid
WARNING: Atom style in data file differs from currently defined atom style (src/read_data.cpp:538)
  reading atoms ...
  200 atoms
WARNING: Bond style in data file differs from currently defined bond style (src/read_data.cpp:630)
  scanning bonds ...
  4 = max bonds/atom
WARNING: Angle style in data file differs from currently defined angle style (src/read_data.cpp:641)
  scanning angles ...
  21 = max angles/atom
  reading bonds ...
  315 bonds
  reading angles ...
  2118 angles
Finding 1-2 1-3 1-4 neighbors ...
  special bond factors lj:    0        0        0.5     
  special bond factors coul:  0        0        0.8333333333333334
     5 = max # of 1-2 neighbors
    10 = max # of 1-3 neighbors
    34 = max # of 1-4 neighbors
    27 = max # of special neighbors
  special bonds CPU = 0.000 seconds
  read_data CPU = 0.014 seconds

# real units, elastic constants in GPa
#units		real
#variable cfac equal 1.01325e-4
#variable cunits string GPa

# Define minimization parameters
variable etol equal 0.0
variable ftol equal 5.0e-13
variable maxiter equal 100000
variable maxeval equal 20000
variable dmax equal 1.0e-2
include potential.mod

# NOTE: This script can be modified for different pair styles
# See in.elastic for more info.

# Setup neighbor style
neighbor 3.0 nsq
neigh_modify once no every 1 delay 0 check yes
comm_modify cutoff 6.0

# Setup minimization style
min_style	     cg
min_modify	     dmax ${dmax} line quadratic
min_modify	     dmax 0.01 line quadratic

timestep	0.001


# Setup output
thermo		500
thermo_style custom step temp pe ebond eangle edihed press pxx pyy pzz pxy pxz pyz lx ly lz vol
# thermo_style custom step temp atoms vx vy vz
thermo_modify norm no


#change_box all triclinic
comm_modify mode single cutoff 10.0 vel yes
atom_modify sort 0 0


# Compute initial state
fix 3 all box/relax x 0 y 0 # xy 0  #MS comment: relax if the network is periodic
minimize ${etol} ${ftol} ${maxiter} ${maxeval}
minimize 0 ${ftol} ${maxiter} ${maxeval}
minimize 0 5e-13 ${maxiter} ${maxeval}
minimize 0 5e-13 100000 ${maxeval}
minimize 0 5e-13 100000 20000
Neighbor list info ...
  update every 1 steps, delay 0 steps, check yes
  max neighbors/atom: 2000, page size: 100000
  master list distance cutoff = 0
  ghost atom cutoff = 10
  0 neighbor lists, perpetual/occasional/extra = 0 0 0
WARNING: Inconsistent image flags (src/domain.cpp:819)
Per MPI rank memory allocation (min/avg/max) = 13.81 | 13.81 | 13.81 Mbytes
   Step          Temp          PotEng         E_bond        E_angle        E_dihed         Press           Pxx            Pyy            Pzz            Pxy            Pxz            Pyz             Lx             Ly             Lz           Volume    
         0   0              3.4669247e-11  3.066744e-11   4.0018071e-12  0             -0.019606354   -0.010192755   -0.029019953    0             -0.021394932    0              0              18.967672      18.967672      0.2            359.77258    
         3   0              1.31103e-11    1.0536663e-11  2.5736369e-12  0             -0.038429114   -0.15444633     0.077588101    0             -0.0093927661   0              0              18.967675      18.967669      0.2            359.77259    
Loop time of 0.00127926 on 1 procs for 3 steps with 200 atoms

100.1% CPU use with 1 MPI tasks x 1 OpenMP threads

Minimization stats:
  Stopping criterion = linesearch alpha is zero
  Energy initial, next-to-last, final = 
    3.46692466600053e-11 1.31102998635774e-11 1.31102998635774e-11
  Force two-norm initial, final = 1.4558762e-05 3.9096939e-05
  Force max component initial, final = 6.5165001e-06 3.4681289e-05
  Final line search alpha, max atom move = 0.5 1.7340645e-05
  Iterations, force evaluations = 3 6

MPI task timing breakdown:
Section |  min time  |  avg time  |  max time  |%varavg| %total
---------------------------------------------------------------
Pair    | 0          | 0          | 0          |   0.0 |  0.00
Bond    | 0.0010483  | 0.0010483  | 0.0010483  |   0.0 | 81.95
Neigh   | 0          | 0          | 0          |   0.0 |  0.00
Comm    | 7.5249e-05 | 7.5249e-05 | 7.5249e-05 |   0.0 |  5.88
Output  | 0          | 0          | 0          |   0.0 |  0.00
Modify  | 0          | 0          | 0          |   0.0 |  0.00
Other   |            | 0.0001557  |            |       | 12.17

Nlocal:            200 ave         200 max         200 min
Histogram: 1 0 0 0 0 0 0 0 0 0
Nghost:            649 ave         649 max         649 min
Histogram: 1 0 0 0 0 0 0 0 0 0
Neighs:              0 ave           0 max           0 min
Histogram: 1 0 0 0 0 0 0 0 0 0

Total # of neighbors = 0
Ave neighs/atom = 0
Ave special neighs/atom = 18.26
Neighbor list builds = 0
Dangerous builds = 0
thermo 100
# thermo_style custom step atoms temp press c_vx c_vy c_vz
unfix 3
fix 2d all enforce2d


# These formulas define the derivatives w.r.t. strain components
# Constants uses $, variables use v_
timestep        ${dt}
timestep        0.01
variable nsteps equal round(${strainsteps})
variable nsteps equal round(200000)

#fix             4 all nve
#fix		     6 all press/berendsen y  0.0 0.0 1 x 0.0 0.0 10
#fix             6 all npt temp 0.0001 0.0001 1000.0 y 0.0 0.0 1000.0
fix             5 all langevin 1e-07 1e-07 10.0 904297
fix             6 all nph y 0.0 0.0 1000.0 ptemp 0.0001
fix     	     9 all deform 1 x erate -${srate} units box remap x
fix     	     9 all deform 1 x erate -1e-05 units box remap x

# For PLUMED2
# fix 22 all plumed plumedfile plumed.dat outfile plumed.out

#To avoid flying ice cube phenomenon:
fix 21 all momentum 100 linear 1 1 1 angular

dump 1 all custom 200 dump.lammpstrj id x y z vx vy vz
run  ${nsteps}
run  200000
WARNING: Inconsistent image flags (src/domain.cpp:819)
Per MPI rank memory allocation (min/avg/max) = 12.68 | 12.68 | 12.68 Mbytes
   Step          Temp          PotEng         E_bond        E_angle        E_dihed         Press           Pxx            Pyy            Pzz            Pxy            Pxz            Pyz             Lx             Ly             Lz           Volume    
         3   0              1.31103e-11    1.0536663e-11  2.5736369e-12  0             -0.038429114   -0.15444633     0.077588101    0             -0.0093927661   0              0              18.967675      18.967669      0.2            359.77259    
       100   1.7344709e-08  8.5618928e-09  7.7694739e-09  7.9241888e-10  0              3.9689055      8.0779099     -0.14009888     0             -0.088336309    0              0              18.967491      18.967705      0.2            359.76978    
       200   4.1456843e-08  3.6245071e-08  3.3009719e-08  3.2353528e-09  0              8.4051287      16.695642      0.11461498     0             -0.16318312     0              0              18.967302      18.967731      0.2            359.76668    
       300   8.6570373e-08  8.2569858e-08  7.5076256e-08  7.4936022e-09  0              12.602673      25.174905      0.030442284    0             -0.24347987     0              0              18.967112      18.967764      0.2            359.76371    
       400   1.8598176e-07  1.4664474e-07  1.330858e-07   1.3558947e-08  0              16.685118      33.513857     -0.14362162     0             -0.32349203     0              0              18.966922      18.967798      0.2            359.76076    
       500   3.819459e-07   2.2732069e-07  2.0630723e-07  2.1013462e-08  0              20.934626      41.763107      0.10614457     0             -0.39399143     0              0              18.966733      18.967822      0.2            359.75761    
       600   6.7516065e-07  3.2336167e-07  2.9296585e-07  3.0395825e-08  0              24.906789      49.772826      0.040751596    0             -0.47231249     0              0              18.966543      18.967851      0.2            359.75457    
       700   1.1048948e-06  4.3358249e-07  3.9193444e-07  4.1648055e-08  0              28.707854      57.561955     -0.14624748     0             -0.55645897     0              0              18.966353      18.967882      0.2            359.75156    
       800   1.7252012e-06  5.5654348e-07  5.0247105e-07  5.4072424e-08  0              32.646114      65.195118      0.097110272    0             -0.6350676      0              0              18.966164      18.967902      0.2            359.74833    
       900   2.4794272e-06  6.9109839e-07  6.2251142e-07  6.8586972e-08  0              36.29839       72.544535      0.052244556    0             -0.71082241     0              0              18.965974      18.967926      0.2            359.74519    
      1000   3.3913096e-06  8.3624758e-07  7.5109499e-07  8.515259e-08   0              39.741503      79.631609     -0.14860386     0             -0.78437567     0              0              18.965784      18.967952      0.2            359.74209    
      1100   4.5023723e-06  9.9095996e-07  8.8815638e-07  1.0280358e-07  0              43.316794      86.547214      0.086374118    0             -0.84846964     0              0              18.965595      18.967967      0.2            359.73877    
      1200   5.7207946e-06  1.1544242e-06  1.0316254e-06  1.2279882e-07  0              46.620167      93.176443      0.063891286    0             -0.91711591     0              0              18.965405      18.967985      0.2            359.73551    
      1300   7.0263379e-06  1.3262419e-06  1.1809863e-06  1.4525564e-07  0              49.698793      99.546654     -0.14906824     0             -0.98965424     0              0              18.965215      18.968005      0.2            359.7323     
      1400   8.4302736e-06  1.5059793e-06  1.3371083e-06  1.6887099e-07  0              52.923985      105.77332      0.074644587    0             -1.0605172      0              0              18.965026      18.968013      0.2            359.72886    
      1500   9.963158e-06   1.6930947e-06  1.4978858e-06  1.9520892e-07  0              55.909469      111.7434       0.075541875    0             -1.1342668      0              0              18.964836      18.968024      0.2            359.72547    
      1600   1.155572e-05   1.8872688e-06  1.6627717e-06  2.2449704e-07  0              58.658999      117.46742     -0.14942141     0             -1.21344        0              0              18.964646      18.968038      0.2            359.72213    
      1700   1.3091075e-05  2.0885395e-06  1.8334435e-06  2.5509598e-07  0              61.573922      123.08272      0.06512823     0             -1.2826798      0              0              18.964457      18.96804       0.2            359.71857    
      1800   1.4648845e-05  2.2967195e-06  2.0078937e-06  2.8882577e-07  0              64.287202      128.4883       0.086103684    0             -1.3550284      0              0              18.964267      18.968044      0.2            359.71505    
      1900   1.6178228e-05  2.5118846e-06  2.1858125e-06  3.2607206e-07  0              66.772604      133.69505     -0.14984064     0             -1.4362111      0              0              18.964077      18.968052      0.2            359.71161    
      2000   1.7666882e-05  2.7340074e-06  2.3692146e-06  3.6479276e-07  0              69.44701       138.84057      0.053448588    0             -1.512851       0              0              18.963888      18.968049      0.2            359.70794    
      2100   1.9168464e-05  2.96301e-06    2.5560597e-06  4.0695023e-07  0              71.962518      143.82933      0.095709682    0             -1.5957415      0              0              18.963698      18.968047      0.2            359.70431    
      2200   2.0679432e-05  3.1989235e-06  2.7457581e-06  4.5316531e-07  0              74.253725      148.65557     -0.14811594     0             -1.6887933      0              0              18.963508      18.968049      0.2            359.70076    
      2300   2.2070595e-05  3.4416736e-06  2.9406948e-06  5.009788e-07   0              76.748118      153.45302      0.043212242    0             -1.77182        0              0              18.963319      18.96804       0.2            359.69699    
      2400   2.3379429e-05  3.6915027e-06  3.1390097e-06  5.5249304e-07  0              79.124555      158.14365      0.10545675     0             -1.8653012      0              0              18.963129      18.968033      0.2            359.69325    
      2500   2.4643482e-05  3.9485241e-06  3.3399672e-06  6.0855684e-07  0              81.281629      162.70979     -0.14652681     0             -1.9714477      0              0              18.962939      18.968031      0.2            359.68961    
      2600   2.5865308e-05  4.2126445e-06  3.5463422e-06  6.6630232e-07  0              83.656703      167.28168      0.031722131    0             -2.0621708      0              0              18.96275       18.968018      0.2            359.68577    
      2700   2.7082366e-05  4.4838782e-06  3.7560409e-06  7.2783732e-07  0              85.946384      171.77811      0.11465472     0             -2.1475026      0              0              18.96256       18.968005      0.2            359.68193    
      2800   2.8064813e-05  4.7624109e-06  3.9682073e-06  7.9420357e-07  0              88.015685      176.17373     -0.14235664     0             -2.2397783      0              0              18.96237       18.967999      0.2            359.67822    
      2900   2.9112324e-05  5.0483969e-06  4.1862228e-06  8.6217406e-07  0              90.312199      180.60592      0.01847714     0             -2.3290665      0              0              18.962181      18.967982      0.2            359.67431    
      3000   2.9941438e-05  5.3419521e-06  4.4080798e-06  9.338723e-07   0              92.562676      185.00272      0.12263158     0             -2.4241976      0              0              18.961991      18.967966      0.2            359.6704     
      3100   3.0757927e-05  5.6432534e-06  4.6324471e-06  1.0108063e-06  0              94.592935      189.32272     -0.1368551      0             -2.5326932      0              0              18.961801      18.967957      0.2            359.66663    
      3200   3.1653267e-05  5.952142e-06   4.8628276e-06  1.0893144e-06  0              96.849252      193.69166      0.0068398351   0             -2.6383305      0              0              18.961612      18.967938      0.2            359.66267    
      3300   3.2419947e-05  6.268645e-06   5.0972228e-06  1.1714222e-06  0              99.083731      198.03836      0.12909999     0             -2.7538668      0              0              18.961422      18.967919      0.2            359.65871    
      3400   3.3139336e-05  6.5930532e-06  5.3340583e-06  1.2589949e-06  0              101.09004      202.31168     -0.13159537     0             -2.8775031      0              0              18.961232      18.967907      0.2            359.65489    
      3500   3.3791854e-05  6.9252765e-06  5.5771592e-06  1.3481173e-06  0              103.32014      206.64479     -0.0045030587   0             -2.9914597      0              0              18.961042      18.967886      0.2            359.65089    
      3600   3.4556389e-05  7.2653399e-06  5.8245587e-06  1.4407812e-06  0              105.55249      210.97         0.13498441     0             -3.1037884      0              0              18.960853      18.967864      0.2            359.64687    
      3700   3.5307321e-05  7.6130422e-06  6.0736006e-06  1.5394417e-06  0              107.54253      215.20952     -0.12445183     0             -3.2136137      0              0              18.960663      18.96785       0.2            359.64301    
      3800   3.5898167e-05  7.9685601e-06  6.3287612e-06  1.639799e-06   0              109.74002      219.4972      -0.017156504    0             -3.3166609      0              0              18.960473      18.967827      0.2            359.63898    
      3900   3.6533866e-05  8.332119e-06   6.5885415e-06  1.7435775e-06  0              111.95928      223.77939      0.13917585     0             -3.412949       0              0              18.960284      18.967803      0.2            359.63492    
      4000   3.7103786e-05  8.7036228e-06  6.8500437e-06  1.8535791e-06  0              113.92955      227.975       -0.11589627     0             -3.5153744      0              0              18.960094      18.967787      0.2            359.63103    
      4100   3.7578421e-05  9.0832571e-06  7.1180519e-06  1.9652052e-06  0              116.09536      232.22121     -0.030494274    0             -3.6122845      0              0              18.959904      18.967764      0.2            359.62698    
      4200   3.7947822e-05  9.4711224e-06  7.3911377e-06  2.0799846e-06  0              118.31072      236.4758       0.14563534     0             -3.7044776      0              0              18.959715      18.967738      0.2            359.6229     
      4300   3.8531246e-05  9.8671158e-06  7.6658963e-06  2.2012195e-06  0              120.2688       240.64565     -0.10805528     0             -3.7965224      0              0              18.959525      18.967721      0.2            359.61898    
      4400   3.8922747e-05  1.0271184e-05  7.9470458e-06  2.3241378e-06  0              122.40778      244.85861     -0.04304875     0             -3.8747157      0              0              18.959335      18.967697      0.2            359.61493    
      4500   3.9368129e-05  1.0683403e-05  8.233443e-06   2.4499598e-06  0              124.61575      249.08399      0.14751131     0             -3.9478326      0              0              18.959146      18.96767       0.2            359.61082    
      4600   3.9820815e-05  1.1103764e-05  8.5212221e-06  2.5825421e-06  0              126.56271      253.22385     -0.098433345    0             -4.0197185      0              0              18.958956      18.967653      0.2            359.6069     
      4700   4.0344292e-05  1.1532215e-05  8.8152075e-06  2.717007e-06   0              128.67587      257.4065      -0.054764975    0             -4.0720366      0              0              18.958766      18.967629      0.2            359.60285    
      4800   4.0760106e-05  1.1968697e-05  9.1145879e-06  2.8541095e-06  0              130.87524      261.60126      0.14923094     0             -4.1126864      0              0              18.958577      18.967602      0.2            359.59873    
      4900   4.1162345e-05  1.2413326e-05  9.41516e-06    2.9981664e-06  0              132.80948      265.70644     -0.087468781    0             -4.1489604      0              0              18.958387      18.967584      0.2            359.5948     
      5000   4.1580775e-05  1.2866095e-05  9.7218589e-06  3.1442358e-06  0              134.88879      269.84338     -0.065799068    0             -4.1692801      0              0              18.958197      18.967561      0.2            359.59077    
      5100   4.1952271e-05  1.3326967e-05  1.0034303e-05  3.2926646e-06  0              137.07719      274.005        0.14938195     0             -4.1793174      0              0              18.958008      18.967533      0.2            359.58664    
      5200   4.2354613e-05  1.3795992e-05  1.0348089e-05  3.4479036e-06  0              139.00383      278.08565     -0.077985696    0             -4.1950405      0              0              18.957818      18.967515      0.2            359.5827     
      5300   4.2718519e-05  1.4273067e-05  1.0667784e-05  3.605283e-06   0              141.05721      282.19007     -0.075639826    0             -4.2049547      0              0              18.957628      18.967491      0.2            359.57865    
      5400   4.2986086e-05  1.4758575e-05  1.099406e-05   3.7645152e-06  0              143.23978      286.32901      0.15055383     0             -4.210199       0              0              18.957439      18.967463      0.2            359.57451    
      5500   4.3374685e-05  1.5252224e-05  1.1321206e-05  3.9310178e-06  0              145.16047      290.38847     -0.067523462    0             -4.2248416      0              0              18.957249      18.967444      0.2            359.57055    
      5600   4.3607637e-05  1.5754111e-05  1.165432e-05   4.0997912e-06  0              147.19328      294.47334     -0.086781071    0             -4.2428377      0              0              18.957059      18.967421      0.2            359.56652    
      5700   4.4055052e-05  1.6264218e-05  1.1994053e-05  4.2701649e-06  0              149.37412      298.59871      0.1495267      0             -4.2579484      0              0              18.95687       18.967392      0.2            359.56237    
      5800   4.4218718e-05  1.6782459e-05  1.2334578e-05  4.4478807e-06  0              151.29341      302.64194     -0.055113758    0             -4.2862901      0              0              18.95668       18.967372      0.2            359.55841    
      5900   4.4488702e-05  1.730911e-05   1.2681056e-05  4.6280542e-06  0              153.30479      306.70723     -0.097636048    0             -4.3125115      0              0              18.95649       18.96735       0.2            359.55438    
      6000   4.4718084e-05  1.7844004e-05  1.3034372e-05  4.809632e-06   0              155.48257      310.81697      0.14817391     0             -4.3399556      0              0              18.956301      18.967321      0.2            359.55023    
      6100   4.50912e-05    1.8387126e-05  1.3388455e-05  4.9986709e-06  0              157.40582      314.85492     -0.04328778     0             -4.3805497      0              0              18.956111      18.967301      0.2            359.54626    
      6200   4.5546834e-05  1.8938246e-05  1.3747631e-05  5.1906147e-06  0              159.3978       318.90216     -0.10655984     0             -4.4211124      0              0              18.955921      18.967278      0.2            359.54224    
      6300   4.5905894e-05  1.9497524e-05  1.4113935e-05  5.3835886e-06  0              161.57308      323.00149      0.14467552     0             -4.4557363      0              0              18.955732      18.967249      0.2            359.53808    
      6400   4.616459e-05   2.006481e-05   1.4480452e-05  5.5843585e-06  0              163.49292      327.01561     -0.029771677    0             -4.4924631      0              0              18.955542      18.967229      0.2            359.5341     
      6500   4.6610534e-05  2.0640288e-05  1.4852058e-05  5.7882298e-06  0              165.45963      331.03543     -0.11616774     0             -4.5301586      0              0              18.955352      18.967207      0.2            359.53008    
      6600   4.68483e-05    2.1223878e-05  1.5230911e-05  5.9929676e-06  0              167.62331      335.10524      0.14138538     0             -4.5663793      0              0              18.955162      18.967176      0.2            359.52591    
      6700   4.724827e-05   2.18155e-05    1.5610027e-05  6.2054726e-06  0              169.54037      339.09906     -0.018310746    0             -4.6101221      0              0              18.954973      18.967155      0.2            359.52192    
      6800   4.7400622e-05  2.2415378e-05  1.5993927e-05  6.4214518e-06  0              171.4868       343.09756     -0.12396946     0             -4.6578847      0              0              18.954783      18.967133      0.2            359.51789    
      6900   4.7725666e-05  2.3023457e-05  1.6385667e-05  6.6377906e-06  0              173.64649      347.15678      0.13620665     0             -4.6975361      0              0              18.954593      18.967102      0.2            359.51372    
      7000   4.808987e-05   2.3639687e-05  1.677781e-05   6.8618774e-06  0              175.57028      351.14619     -0.0056377294   0             -4.7408909      0              0              18.954404      18.967081      0.2            359.50971    
      7100   4.8330261e-05  2.4263951e-05  1.717423e-05   7.0897211e-06  0              177.50029      355.13188     -0.1313041      0             -4.7818271      0              0              18.954214      18.967058      0.2            359.50568    
      7200   4.8564645e-05  2.4896545e-05  1.75789e-05    7.3176445e-06  0              179.6586       359.18593      0.13125799     0             -4.818174       0              0              18.954024      18.967027      0.2            359.5015     
      7300   4.8881097e-05  2.5537302e-05  1.7984058e-05  7.553244e-06   0              181.5919       363.17717      0.0066351388   0             -4.8593406      0              0              18.953835      18.967005      0.2            359.49748    
      7400   4.9111555e-05  2.6186244e-05  1.8393465e-05  7.7927794e-06  0              183.51422      367.16593     -0.13749547     0             -4.9071578      0              0              18.953645      18.966983      0.2            359.49346    
      7500   4.9321377e-05  2.6843321e-05  1.8811299e-05  8.0320212e-06  0              185.67057      371.21777      0.12336751     0             -4.9491975      0              0              18.953455      18.966951      0.2            359.48927    
      7600   4.9393638e-05  2.7508813e-05  1.923032e-05   8.2784928e-06  0              187.61514      375.2096       0.020677407    0             -4.9987378      0              0              18.953266      18.966928      0.2            359.48523    
      7700   4.9673236e-05  2.8182513e-05  1.9652994e-05  8.5295188e-06  0              189.52181      379.18689     -0.14326541     0             -5.0519972      0              0              18.953076      18.966906      0.2            359.48122    
      7800   4.9877731e-05  2.8864484e-05  2.0084878e-05  8.7796054e-06  0              191.67563      383.23662      0.11463734     0             -5.0968586      0              0              18.952886      18.966875      0.2            359.47703    
      7900   5.0046447e-05  2.9554618e-05  2.0517616e-05  9.0370026e-06  0              193.6291       387.22404      0.034157262    0             -5.1451925      0              0              18.952697      18.966852      0.2            359.47298    
      8000   5.0200445e-05  3.0253195e-05  2.0953989e-05  9.2992058e-06  0              195.52222      391.1923      -0.14786158     0             -5.189787       0              0              18.952507      18.96683       0.2            359.46899    
      8100   5.0404523e-05  3.0960004e-05  2.1399518e-05  9.5604861e-06  0              197.67072      395.23482      0.10661474     0             -5.2183744      0              0              18.952317      18.9668        0.2            359.4648     
      8200   5.077347e-05   3.1675014e-05  2.1846086e-05  9.8289272e-06  0              199.63067      399.216        0.045340522    0             -5.2490322      0              0              18.952128      18.966776      0.2            359.46076    
      8300   5.0954611e-05  3.2397966e-05  2.2295072e-05  1.0102893e-05  0              201.50859      403.16743     -0.15024768     0             -5.2838912      0              0              18.951938      18.966756      0.2            359.45678    
      8400   5.1073346e-05  3.3129194e-05  2.2753513e-05  1.0375681e-05  0              203.64224      407.18763      0.096841662    0             -5.3069197      0              0              18.951748      18.966726      0.2            359.45261    
      8500   5.124012e-05   3.3868769e-05  2.3213419e-05  1.065535e-05   0              205.60947      411.16002      0.058916906    0             -5.3361306      0              0              18.951559      18.966702      0.2            359.44857    
      8600   5.136639e-05   3.4616718e-05  2.3676063e-05  1.0940656e-05  0              207.47832      415.10884     -0.15219541     0             -5.3626424      0              0              18.951369      18.966682      0.2            359.44459    
      8700   5.1465756e-05  3.5373031e-05  2.4148909e-05  1.1224121e-05  0              209.61348      419.14099      0.085975013    0             -5.3782408      0              0              18.951179      18.966652      0.2            359.44043    
      8800   5.1665975e-05  3.6137593e-05  2.46232e-05    1.1514392e-05  0              211.60113      423.13072      0.071528353    0             -5.3972027      0              0              18.95099       18.966628      0.2            359.43637    
      8900   5.1805354e-05  3.6910381e-05  2.5099406e-05  1.1810975e-05  0              213.46518      427.08522     -0.15486634     0             -5.4269842      0              0              18.9508        18.966609      0.2            359.43241    
      9000   5.2044538e-05  3.7691387e-05  2.5585625e-05  1.2105762e-05  0              215.59729      431.11786      0.076721312    0             -5.4471742      0              0              18.95061       18.966579      0.2            359.42824    
      9100   5.2370756e-05  3.8480479e-05  2.6073546e-05  1.2406933e-05  0              217.59398      435.10597      0.081988408    0             -5.4729162      0              0              18.950421      18.966554      0.2            359.42418    
      9200   5.2611522e-05  3.9277633e-05  2.6562582e-05  1.2715051e-05  0              219.44411      439.04366     -0.15542924     0             -5.5120474      0              0              18.950231      18.966534      0.2            359.42021    
      9300   5.29349e-05    4.0082732e-05  2.706094e-05   1.3021792e-05  0              221.55721      443.0502       0.064213059    0             -5.547884       0              0              18.950041      18.966504      0.2            359.41604    
      9400   5.3123754e-05  4.0895895e-05  2.7560971e-05  1.3334924e-05  0              223.55673      447.01859      0.094867894    0             -5.5868173      0              0              18.949852      18.966479      0.2            359.41195    
      9500   5.3420831e-05  4.1717205e-05  2.806176e-05   1.3655445e-05  0              225.39238      450.93876     -0.15400804     0             -5.6316406      0              0              18.949662      18.966459      0.2            359.40799    
      9600   5.3684984e-05  4.2546496e-05  2.8572222e-05  1.3974273e-05  0              227.48899      454.92567      0.05229841     0             -5.6716997      0              0              18.949472      18.966429      0.2            359.40383    
      9700   5.4051337e-05  4.3383782e-05  2.9084369e-05  1.4299413e-05  0              229.4911       458.87848      0.10372524     0             -5.7226599      0              0              18.949283      18.966403      0.2            359.39973    
      9800   5.4322893e-05  4.4229107e-05  2.9596728e-05  1.4632379e-05  0              231.3118       462.77523     -0.15162379     0             -5.7785328      0              0              18.949093      18.966383      0.2            359.39576    
      9900   5.4387461e-05  4.5082427e-05  3.011903e-05   1.4963397e-05  0              233.39134      466.74198      0.040695885    0             -5.8271887      0              0              18.948903      18.966353      0.2            359.39159    
     10000   5.4544477e-05  4.5944257e-05  3.064507e-05   1.5299187e-05  0              235.40331      470.69308      0.11354428     0             -5.8801989      0              0              18.948713      18.966326      0.2            359.38748    
     10100   5.4878767e-05  4.6814065e-05  3.1170648e-05  1.5643417e-05  0              237.21783      474.58337     -0.14769876     0             -5.9444095      0              0              18.948524      18.966306      0.2            359.38351    
     10200   5.5095621e-05  4.7691777e-05  3.1705595e-05  1.5986182e-05  0              239.28289      478.53813      0.027644093    0             -5.9956302      0              0              18.948334      18.966276      0.2            359.37934    
     10300   5.5159297e-05  4.8577907e-05  3.2244369e-05  1.6333538e-05  0              241.30421      482.48631      0.12210604     0             -6.0495771      0              0              18.948144      18.966248      0.2            359.37521    
     10400   5.532663e-05   4.9472284e-05  3.2782608e-05  1.6689676e-05  0              243.11514      486.37434     -0.14406386     0             -6.1081494      0              0              18.947955      18.966228      0.2            359.37123    
     10500   5.5468888e-05  5.0374805e-05  3.3330796e-05  1.704401e-05   0              245.17262      490.33034      0.014902078    0             -6.1567398      0              0              18.947765      18.966199      0.2            359.36708    
     10600   5.5622834e-05  5.1285596e-05  3.3882827e-05  1.7402768e-05  0              247.20416      494.27849      0.12983757     0             -6.2022195      0              0              18.947575      18.96617       0.2            359.36294    
     10700   5.5929531e-05  5.220437e-05   3.443313e-05   1.777124e-05   0              249.0084       498.15634     -0.13955123     0             -6.2562033      0              0              18.947386      18.96615       0.2            359.35896    
     10800   5.6282911e-05  5.3131079e-05  3.4993054e-05  1.8138025e-05  0              251.04984      502.09719      0.002480942    0             -6.3076125      0              0              18.947196      18.96612       0.2            359.3548     
     10900   5.6723751e-05  5.406562e-05   3.5556317e-05  1.8509303e-05  0              253.07938      506.02247      0.13629998     0             -6.3598529      0              0              18.947006      18.966091      0.2            359.35065    
     11000   5.6814109e-05  5.5008109e-05  3.611722e-05   1.8890889e-05  0              254.86717      509.86852     -0.13417033     0             -6.4134743      0              0              18.946817      18.966071      0.2            359.34668    
     11100   5.6934379e-05  5.5958901e-05  3.6688252e-05  1.9270649e-05  0              256.88687      513.78346     -0.0097171517   0             -6.4526227      0              0              18.946627      18.966042      0.2            359.34253    
     11200   5.7054808e-05  5.6917907e-05  3.72641e-05    1.9653807e-05  0              258.92556      517.70806      0.14305829     0             -6.4943587      0              0              18.946437      18.966013      0.2            359.33837    
     11300   5.742695e-05   5.7885023e-05  3.7837919e-05  2.0047104e-05  0              260.71619      521.55982     -0.12744153     0             -6.5421353      0              0              18.946248      18.965993      0.2            359.3344     
     11400   5.7316247e-05  5.886036e-05   3.8421606e-05  2.0438753e-05  0              262.72635      525.47537     -0.022667394    0             -6.576736       0              0              18.946058      18.965965      0.2            359.33027    
     11500   5.7705021e-05  5.9843861e-05  3.9010521e-05  2.083334e-05   0              264.77325      529.39777      0.14872354     0             -6.6115106      0              0              18.945868      18.965935      0.2            359.32611    
     11600   5.7902498e-05  6.0835338e-05  3.9597089e-05  2.1238249e-05  0              266.56042      533.2397      -0.11886114     0             -6.6570582      0              0              18.945679      18.965916      0.2            359.32214    
     11700   5.8190842e-05  6.1834797e-05  4.0193247e-05  2.164155e-05   0              268.55249      537.14172     -0.036737895    0             -6.6964199      0              0              18.945489      18.965888      0.2            359.31802    
     11800   5.8317281e-05  6.2842379e-05  4.0795075e-05  2.2047305e-05  0              270.60818      541.06534      0.15101731     0             -6.7300203      0              0              18.945299      18.965858      0.2            359.31385    
     11900   5.8463e-05     6.3858097e-05  4.1394117e-05  2.246398e-05   0              272.40214      544.91074     -0.10645542     0             -6.778129       0              0              18.94511       18.965837      0.2            359.30986    
     12000   5.8681312e-05  6.4882058e-05  4.200242e-05   2.2879638e-05  0              274.37871      548.80729     -0.049866033    0             -6.8246122      0              0              18.94492       18.96581       0.2            359.30574    
     12100   5.8907286e-05  6.591389e-05   4.261672e-05   2.3297171e-05  0              276.4394       552.72526      0.15353396     0             -6.8715823      0              0              18.94473       18.965779      0.2            359.30156    
     12200   5.9085408e-05  6.6953975e-05  4.3228271e-05  2.3725704e-05  0              278.23691      556.57064     -0.096816762    0             -6.9250386      0              0              18.944541      18.965758      0.2            359.29757    
     12300   5.9467452e-05  6.8001942e-05  4.3847958e-05  2.4153984e-05  0              280.19615      560.45515     -0.062843575    0             -6.9703243      0              0              18.944351      18.96573       0.2            359.29345    
     12400   5.966743e-05   6.9057885e-05  4.4474485e-05  2.45834e-05    0              282.26322      564.37031      0.15612147     0             -7.014087       0              0              18.944161      18.965698      0.2            359.28925    
     12500   5.9881815e-05  7.0121816e-05  4.5097731e-05  2.5024085e-05  0              284.05956      568.20505     -0.085937938    0             -7.0659881      0              0              18.943972      18.965677      0.2            359.28524    
     12600   6.0068458e-05  7.1193767e-05  4.5728773e-05  2.5464993e-05  0              285.99851      572.0727      -0.075683614    0             -7.1084584      0              0              18.943782      18.965649      0.2            359.28112    
     12700   6.0129745e-05  7.2273956e-05  4.636751e-05   2.5906445e-05  0              288.06653      575.97622      0.15684759     0             -7.1368801      0              0              18.943592      18.965617      0.2            359.27691    
     12800   6.0389267e-05  7.3362305e-05  4.700324e-05   2.6359065e-05  0              289.86598      579.80626     -0.074304131    0             -7.1714693      0              0              18.943403      18.965594      0.2            359.27289    
     12900   6.055328e-05   7.4458592e-05  4.764674e-05   2.6811853e-05  0              291.79112      583.6698      -0.087563644    0             -7.2006977      0              0              18.943213      18.965567      0.2            359.26878    
     13000   6.0915942e-05  7.5562936e-05  4.8298707e-05  2.7264229e-05  0              293.86756      587.57731      0.15781335     0             -7.213243       0              0              18.943023      18.965534      0.2            359.26456    
     13100   6.1135878e-05  7.667516e-05   4.8946434e-05  2.7728726e-05  0              295.66615      591.39523     -0.062917567    0             -7.2397033      0              0              18.942834      18.965512      0.2            359.26054    
     13200   6.1337545e-05  7.7795434e-05  4.9601618e-05  2.8193815e-05  0              297.57116      595.2399      -0.097583759    0             -7.2677235      0              0              18.942644      18.965485      0.2            359.25644    
     13300   6.1393224e-05  7.8923775e-05  5.0266296e-05  2.8657479e-05  0              299.64433      599.13177      0.15687725     0             -7.2980762      0              0              18.942454      18.965452      0.2            359.25221    
     13400   6.152819e-05   8.0060343e-05  5.0927582e-05  2.9132761e-05  0              301.44805      602.9467      -0.050585761    0             -7.3430779      0              0              18.942264      18.96543       0.2            359.24819    
     13500   6.1805428e-05  8.120493e-05   5.1595853e-05  2.9609077e-05  0              303.33884      606.78532     -0.10765096     0             -7.3816566      0              0              18.942075      18.965404      0.2            359.2441     
     13600   6.1974055e-05  8.2357605e-05  5.2273784e-05  3.0083821e-05  0              305.4124       610.67185      0.15295792     0             -7.4119663      0              0              18.941885      18.965371      0.2            359.23989    
     13700   6.2008393e-05  8.3518357e-05  5.2947516e-05  3.0570841e-05  0              307.22279      614.48282     -0.037250809    0             -7.4600393      0              0              18.941695      18.965349      0.2            359.23586    
     13800   6.2158651e-05  8.4687366e-05  5.3627414e-05  3.1059953e-05  0              309.10004      618.3164      -0.11631991     0             -7.5105182      0              0              18.941506      18.965324      0.2            359.23179    
     13900   6.2315144e-05  8.5864679e-05  5.4318528e-05  3.154615e-05   0              311.18085      622.21349      0.14820587     0             -7.5580782      0              0              18.941316      18.965292      0.2            359.22758    
     14000   6.268328e-05   8.7049797e-05  5.5005152e-05  3.2044645e-05  0              313.00215      626.02948     -0.025186159    0             -7.6158367      0              0              18.941126      18.965269      0.2            359.22355    
     14100   6.2860192e-05  8.8242906e-05  5.5696971e-05  3.2545936e-05  0              314.8646       629.85307     -0.12387307     0             -7.6703         0              0              18.940937      18.965244      0.2            359.21949    
     14200   6.294879e-05   8.944406e-05   5.639965e-05   3.304441e-05   0              316.94156      633.74005      0.14306533     0             -7.7170775      0              0              18.940747      18.965211      0.2            359.21527    
     14300   6.3378879e-05  9.065316e-05   5.7098214e-05  3.3554946e-05  0              318.76637      637.54519     -0.012451307    0             -7.7728454      0              0              18.940557      18.965188      0.2            359.21123    
     14400   6.345256e-05   9.1870185e-05  5.7801297e-05  3.4068888e-05  0              320.61065      641.35345     -0.13215973     0             -7.8254286      0              0              18.940368      18.965164      0.2            359.20717    
     14500   6.3694329e-05  9.3095295e-05  5.851552e-05   3.4579775e-05  0              322.68157      645.22583      0.13731732     0             -7.8634891      0              0              18.940178      18.96513       0.2            359.20294    
     14600   6.3775544e-05  9.4328502e-05  5.9226274e-05  3.5102228e-05  0              324.51372      649.02615      0.0012990893   0             -7.9085881      0              0              18.939988      18.965106      0.2            359.19889    
     14700   6.3867002e-05  9.5569988e-05  5.9941546e-05  3.5628443e-05  0              326.3432       652.82546     -0.13905595     0             -7.9525514      0              0              18.939799      18.965082      0.2            359.19483    
     14800   6.3888256e-05  9.6819593e-05  6.0668646e-05  3.6150947e-05  0              328.412        656.69277      0.13123425     0             -7.9906278      0              0              18.939609      18.965049      0.2            359.19061    
     14900   6.3989661e-05  9.8077672e-05  6.1392723e-05  3.6684949e-05  0              330.25699      660.4998       0.014186573    0             -8.0363739      0              0              18.939419      18.965024      0.2            359.18655    
     15000   6.4011003e-05  9.9343975e-05  6.212036e-05   3.7223616e-05  0              332.07756      664.30007     -0.14495356     0             -8.0844129      0              0              18.93923       18.965001      0.2            359.18251    
     15100   6.4156918e-05  0.00010061848  6.2860627e-05  3.7757855e-05  0              334.14827      668.17336      0.12317917     0             -8.12548        0              0              18.93904       18.964968      0.2            359.17828    
     15200   6.4319083e-05  0.00010190108  6.3597983e-05  3.8303092e-05  0              336.00467      671.98211      0.027221749    0             -8.1739015      0              0              18.93885       18.964943      0.2            359.17421    
     15300   6.4510805e-05  0.00010319172  6.4337695e-05  3.8854028e-05  0              337.8144       675.77709     -0.14829771     0             -8.2191736      0              0              18.938661      18.96492       0.2            359.17017    
     15400   6.4744067e-05  0.00010449034  6.509e-05      3.9400335e-05  0              339.87838      679.6426       0.11417038     0             -8.2534268      0              0              18.938471      18.964886      0.2            359.16595    
     15500   6.4869735e-05  0.00010579691  6.5839242e-05  3.9957666e-05  0              341.74532      683.45111      0.039530381    0             -8.2890828      0              0              18.938281      18.964861      0.2            359.16186    
     15600   6.5068471e-05  0.00010711157  6.6590923e-05  4.0520643e-05  0              343.54827      687.24718     -0.15064511     0             -8.3251047      0              0              18.938092      18.964838      0.2            359.15783    
     15700   6.5069303e-05  0.00010843442  6.7356325e-05  4.107809e-05   0              345.61511      691.12626      0.10396366     0             -8.3478384      0              0              18.937902      18.964805      0.2            359.15362    
     15800   6.5215988e-05  0.00010976552  6.8119799e-05  4.1645722e-05  0              347.50434      694.95657      0.052111019    0             -8.3753178      0              0              18.937712      18.964779      0.2            359.14953    
     15900   6.5521223e-05  0.00011110446  6.8883784e-05  4.2220678e-05  0              349.30236      698.75892     -0.15419242     0             -8.4065019      0              0              18.937523      18.964756      0.2            359.1455     
     16000   6.5708921e-05  0.00011245141  6.9661719e-05  4.2789695e-05  0              351.37004      702.64506      0.095009916    0             -8.4305714      0              0              18.937333      18.964723      0.2            359.14128    
     16100   6.5813273e-05  0.00011380645  7.0438208e-05  4.336824e-05   0              353.27228      706.48173      0.062822561    0             -8.4649424      0              0              18.937143      18.964697      0.2            359.13717    
     16200   6.5701144e-05  0.00011516978  7.1215337e-05  4.395444e-05   0              355.06979      710.2944      -0.1548175      0             -8.5064942      0              0              18.936954      18.964674      0.2            359.13315    
     16300   6.5715846e-05  0.0001165415   7.2007161e-05  4.4534337e-05  0              357.13729      714.18887      0.085706249    0             -8.5430879      0              0              18.936764      18.964641      0.2            359.12893    
     16400   6.5915896e-05  0.00011792167  7.2799215e-05  4.5122451e-05  0              359.06066      718.04715      0.074173929    0             -8.5914943      0              0              18.936574      18.964614      0.2            359.12482    
     16500   6.6014953e-05  0.00011930972  7.3590272e-05  4.5719447e-05  0              360.8508       721.85819     -0.15659449     0             -8.6434943      0              0              18.936384      18.964592      0.2            359.1208     
     16600   6.6111748e-05  0.00012070582  7.4394506e-05  4.6311317e-05  0              362.90848      725.74133      0.075627448    0             -8.6868965      0              0              18.936195      18.964559      0.2            359.11659    
     16700   6.6150398e-05  0.00012211022  7.5198661e-05  4.6911563e-05  0              364.83576      729.58647      0.085055145    0             -8.7360263      0              0              18.936005      18.964532      0.2            359.11247    
     16800   6.6451849e-05  0.00012352272  7.6001347e-05  4.7521377e-05  0              366.61214      733.38104     -0.15675859     0             -8.7959677      0              0              18.935815      18.96451       0.2            359.10846    
     16900   6.6751637e-05  0.00012494304  7.6817384e-05  4.8125655e-05  0              368.65449      737.24478      0.064187446    0             -8.8447689      0              0              18.935626      18.964478      0.2            359.10426    
     17000   6.6664624e-05  0.00012637136  7.7633708e-05  4.8737657e-05  0              370.5834       741.0716       0.095202393    0             -8.8992041      0              0              18.935436      18.96445       0.2            359.10013    
     17100   6.6844843e-05  0.0001278081   7.844849e-05   4.9359609e-05  0              372.34662      744.84824     -0.1550006      0             -8.958411       0              0              18.935246      18.964428      0.2            359.09613    
     17200   6.6967905e-05  0.00012925282  7.9277102e-05  4.9975716e-05  0              374.37434      748.69623      0.052438229    0             -9.0088286      0              0              18.935057      18.964396      0.2            359.09192    
     17300   6.7152548e-05  0.00013070547  8.0106075e-05  5.0599393e-05  0              376.3065       752.50746      0.10553862     0             -9.0570046      0              0              18.934867      18.964368      0.2            359.08778    
     17400   6.7407071e-05  0.00013216612  8.0932599e-05  5.1233519e-05  0              378.05529      756.2635      -0.15293131     0             -9.104359       0              0              18.934677      18.964346      0.2            359.08378    
     17500   6.7313358e-05  0.00013363497  8.1773403e-05  5.186157e-05   0              380.06859      760.09646      0.040723026    0             -9.1409162      0              0              18.934488      18.964315      0.2            359.07959    
     17600   6.7608636e-05  0.00013511206  8.2616587e-05  5.2495477e-05  0              382.01374      763.9123       0.11517636     0             -9.1733866      0              0              18.934298      18.964286      0.2            359.07545    
     17700   6.7555304e-05  0.00013659721  8.3456132e-05  5.3141079e-05  0              383.76021      767.66932     -0.14890796     0             -9.2113035      0              0              18.934108      18.964265      0.2            359.07146    
     17800   6.7983687e-05  0.0001380902   8.4308956e-05  5.3781248e-05  0              385.75907      771.49211      0.026034771    0             -9.2372952      0              0              18.933919      18.964235      0.2            359.06728    
     17900   6.8129601e-05  0.00013959108  8.5162978e-05  5.4428098e-05  0              387.70891      775.29412      0.12369196     0             -9.2649668      0              0              18.933729      18.964205      0.2            359.06312    
     18000   6.8171942e-05  0.00014110019  8.6012998e-05  5.5087188e-05  0              389.44848      779.04105     -0.14409217     0             -9.3025659      0              0              18.933539      18.964184      0.2            359.05912    
     18100   6.8317938e-05  0.00014261738  8.6876577e-05  5.5740806e-05  0              391.438        782.8626       0.013405533    0             -9.3400771      0              0              18.93335       18.964153      0.2            359.05494    
     18200   6.8320978e-05  0.00014414282  8.7742819e-05  5.6400006e-05  0              393.40174      786.67308      0.13038831     0             -9.3844148      0              0              18.93316       18.964123      0.2            359.05077    
     18300   6.8539133e-05  0.0001456763   8.8604249e-05  5.7072049e-05  0              395.14183      790.4212      -0.13754621     0             -9.4354138      0              0              18.93297       18.964101      0.2            359.04676    
     18400   6.8706513e-05  0.00014721785  8.9479207e-05  5.7738643e-05  0              397.12151      794.24237      0.00064818469  0             -9.4801132      0              0              18.932781      18.96407       0.2            359.04258    
     18500   6.895432e-05   0.00014876734  9.0357826e-05  5.8409509e-05  0              399.09738      798.05889      0.13585851     0             -9.5253114      0              0              18.932591      18.96404       0.2            359.0384     
     18600   6.9096029e-05  0.00015032472  9.1230627e-05  5.9094092e-05  0              400.83576      801.80242     -0.130902       0             -9.5766778      0              0              18.932401      18.964018      0.2            359.03439    
     18700   6.9044139e-05  0.00015189041  9.2117081e-05  5.977333e-05   0              402.79952      805.61029     -0.011247357    0             -9.616958       0              0              18.932212      18.963987      0.2            359.03022    
     18800   6.9252903e-05  0.00015346427  9.3008444e-05  6.0455828e-05  0              404.78191      809.42327      0.14054813     0             -9.6554683      0              0              18.932022      18.963956      0.2            359.02603    
     18900   6.9446837e-05  0.00015504609  9.3893394e-05  6.1152696e-05  0              406.52148      813.16538     -0.12242301     0             -9.7052944      0              0              18.931832      18.963934      0.2            359.02202    
     19000   6.969047e-05   0.00015663575  9.4789989e-05  6.1845763e-05  0              408.4689       816.96149     -0.023697221    0             -9.7492118      0              0              18.931643      18.963904      0.2            359.01785    
     19100   7.0023174e-05  0.00015823326  9.5691924e-05  6.2541339e-05  0              410.45646      820.76729      0.14563575     0             -9.7868417      0              0              18.931453      18.963872      0.2            359.01365    
     19200   7.0253801e-05  0.00015983852  9.6587078e-05  6.3251446e-05  0              412.1932       824.50106     -0.11466648     0             -9.8271472      0              0              18.931263      18.96385       0.2            359.00964    
     19300   7.0397555e-05  0.00016145186  9.7494941e-05  6.3956922e-05  0              414.12962      828.29712     -0.037874864    0             -9.8571208      0              0              18.931074      18.96382       0.2            359.00548    
     19400   7.031464e-05   0.00016307335  9.8410073e-05  6.4663279e-05  0              416.13281      832.1144       0.15122151     0             -9.8912318      0              0              18.930884      18.963788      0.2            359.00127    
     19500   7.043604e-05   0.00016470315  9.9318722e-05  6.5384424e-05  0              417.87659      835.86016     -0.10698352     0             -9.9385725      0              0              18.930694      18.963766      0.2            358.99725    
     19600   7.0484006e-05  0.00016634108  0.00010023925  6.6101831e-05  0              419.80525      839.65905     -0.048545557    0             -9.9848598      0              0              18.930505      18.963736      0.2            358.9931     
     19700   7.0640295e-05  0.00016798709  0.00010116731  6.6819773e-05  0              421.81943      843.48513      0.15371559     0             -10.033886      0              0              18.930315      18.963704      0.2            358.98889    
     19800   7.0716568e-05  0.00016964125  0.00010208841  6.7552832e-05  0              423.56754      847.2332      -0.098131022    0             -10.086737      0              0              18.930125      18.963682      0.2            358.98487    
     19900   7.0862356e-05  0.00017130351  0.00010302132  6.8282191e-05  0              425.48772      851.0369      -0.061468755    0             -10.13053       0              0              18.929935      18.963653      0.2            358.98073    
     20000   7.1012224e-05  0.00017297374  0.00010396224  6.9011502e-05  0              427.51242      854.8686       0.15623946     0             -10.168138      0              0              18.929746      18.963621      0.2            358.97652    
     20100   7.1057224e-05  0.00017465225  0.00010489603  6.9756225e-05  0              429.26957      858.62746     -0.088314988    0             -10.221088      0              0              18.929556      18.963598      0.2            358.9725     
     20200   7.0934658e-05  0.00017633886  0.00010584013  7.0498734e-05  0              431.17864      862.42974     -0.072468001    0             -10.266651      0              0              18.929366      18.96357       0.2            358.96837    
     20300   7.106367e-05   0.00017803384  0.00010679512  7.1238725e-05  0              433.21444      866.27169      0.157181       0             -10.308076      0              0              18.929177      18.963538      0.2            358.96416    
     20400   7.1085444e-05  0.00017973693  0.00010774232  7.1994614e-05  0              434.97325      870.02407     -0.077575715    0             -10.351137      0              0              18.928987      18.963516      0.2            358.96014    
     20500   7.1269734e-05  0.00018144817  0.00010869975  7.2748427e-05  0              436.86398      873.81176     -0.08380552     0             -10.389537      0              0              18.928797      18.963488      0.2            358.95603    
     20600   7.1156426e-05  0.00018316777  0.00010966876  7.3499011e-05  0              438.90301      877.64932      0.15670627     0             -10.428612      0              0              18.928608      18.963456      0.2            358.95181    
     20700   7.130263e-05   0.00018489556  0.00011063005  7.4265519e-05  0              440.67006      881.4058      -0.065679525    0             -10.479926      0              0              18.928418      18.963433      0.2            358.9478     
     20800   7.1452195e-05  0.00018663141  0.00011160098  7.5030433e-05  0              442.54866      885.19198     -0.094647694    0             -10.527762      0              0              18.928228      18.963406      0.2            358.94369    
     20900   7.1784243e-05  0.00018837495  0.00011258201  7.5792941e-05  0              444.58585      889.01698      0.15472226     0             -10.571358      0              0              18.928039      18.963373      0.2            358.93946    
     21000   7.1790306e-05  0.00019012653  0.0001135548   7.6571731e-05  0              446.35711      892.76594     -0.051726423    0             -10.620631      0              0              18.927849      18.96335       0.2            358.93543    
     21100   7.2059295e-05  0.00019188628  0.00011453556  7.7350719e-05  0              448.21575      896.53791     -0.10641428     0             -10.663525      0              0              18.927659      18.963324      0.2            358.93134    
     21200   7.2171585e-05  0.00019365382  0.00011552732  7.8126499e-05  0              450.25205      900.35246      0.15164472     0             -10.698168      0              0              18.92747       18.963291      0.2            358.92711    
     21300   7.2139045e-05  0.00019542967  0.00011651265  7.891702e-05   0              452.02707      904.09202     -0.037881755    0             -10.749425      0              0              18.92728       18.963267      0.2            358.92307    
     21400   7.2239124e-05  0.00019721364  0.00011750578  7.9707859e-05  0              453.86867      907.8531      -0.11576347     0             -10.79383       0              0              18.92709       18.963241      0.2            358.91898    
     21500   7.2460206e-05  0.00019900576  0.00011851192  8.0493848e-05  0              455.90968      911.67116      0.1482         0             -10.830887      0              0              18.926901      18.963208      0.2            358.91475    
     21600   7.2428272e-05  0.00020080589  0.00011950991  8.129598e-05   0              457.69502      915.41579     -0.025749954    0             -10.870808      0              0              18.926711      18.963183      0.2            358.91069    
     21700   7.2627404e-05  0.00020261421  0.00012051482  8.2099391e-05  0              459.52826      919.18041     -0.12389455     0             -10.910945      0              0              18.926521      18.963158      0.2            358.90661    
     21800   7.2866774e-05  0.00020443042  0.00012153304  8.2897382e-05  0              461.57465      923.00398      0.14532003     0             -10.949789      0              0              18.926332      18.963124      0.2            358.90237    
     21900   7.309613e-05   0.00020625452  0.00012254263  8.3711893e-05  0              463.36804      926.74956     -0.013487496    0             -10.991635      0              0              18.926142      18.963099      0.2            358.89831    
     22000   7.3273357e-05  0.00020808643  0.00012355578  8.4530653e-05  0              465.17953      930.49207     -0.13301894     0             -11.026854      0              0              18.925952      18.963074      0.2            358.89424    
     22100   7.3450381e-05  0.00020992627  0.00012458364  8.5342624e-05  0              467.21886      934.29695      0.14077009     0             -11.056236      0              0              18.925763      18.96304       0.2            358.89       
     22200   7.3482961e-05  0.00021177425  0.00012560452  8.6169733e-05  0              469.01354      938.02689      0.00018389605  0             -11.100533      0              0              18.925573      18.963015      0.2            358.88593    
     22300   7.3407857e-05  0.00021363059  0.00012663069  8.6999905e-05  0              470.81304      941.76744     -0.14136603     0             -11.14485       0              0              18.925383      18.96299       0.2            358.88185    
     22400   7.3422011e-05  0.00021549523  0.00012767386  8.7821372e-05  0              472.86059      945.5878       0.13338031     0             -11.18377       0              0              18.925194      18.962955      0.2            358.87759    
     22500   7.3626007e-05  0.00021736797  0.0001287108   8.8657176e-05  0              474.67828      949.34263      0.013925921    0             -11.235314      0              0              18.925004      18.962929      0.2            358.87351    
     22600   7.3818534e-05  0.00021924865  0.00012975016  8.949849e-05   0              476.46821      953.08413     -0.14771389     0             -11.289873      0              0              18.924814      18.962904      0.2            358.86943    
     22700   7.4071496e-05  0.00022113719  0.00013080537  9.0331818e-05  0              478.50928      956.89189      0.12667018     0             -11.336398      0              0              18.924625      18.962869      0.2            358.86517    
     22800   7.4083135e-05  0.00022303378  0.00013185263  9.1181149e-05  0              480.32773      960.62933      0.026138439    0             -11.390411      0              0              18.924435      18.962842      0.2            358.86108    
     22900   7.4284386e-05  0.00022493833  0.00013290119  9.2037136e-05  0              482.09856      964.34941     -0.1522939      0             -11.447582      0              0              18.924245      18.962818      0.2            358.85701    
     23000   7.4335459e-05  0.0002268511   0.00013396679  9.2884311e-05  0              484.13475      968.15156      0.11793939     0             -11.493971      0              0              18.924056      18.962783      0.2            358.85276    
     23100   7.4325355e-05  0.00022877202  0.0001350271   9.3744921e-05  0              485.97312      971.90492      0.041328234    0             -11.551719      0              0              18.923866      18.962757      0.2            358.84866    
     23200   7.4318027e-05  0.00023070108  0.0001360879   9.4613184e-05  0              487.74434      975.64411     -0.15543741     0             -11.61526       0              0              18.923676      18.962733      0.2            358.84462    
     23300   7.4616996e-05  0.00023263824  0.00013716555  9.5472684e-05  0              489.78505      979.46282      0.1072883      0             -11.665984      0              0              18.923486      18.962699      0.2            358.84039    
     23400   7.461379e-05   0.00023458336  0.00013823818  9.6345176e-05  0              491.64377      983.23448      0.053070794    0             -11.716188      0              0              18.923297      18.962673      0.2            358.83629    
     23500   7.4957392e-05  0.00023653637  0.00013930972  9.7226653e-05  0              493.40768      986.97379     -0.15842095     0             -11.769846      0              0              18.923107      18.96265       0.2            358.83225    
     23600   7.5046018e-05  0.00023849733  0.0001403985   9.8098826e-05  0              495.44584      990.79419      0.097483474    0             -11.814066      0              0              18.922917      18.962616      0.2            358.82802    
     23700   7.5201902e-05  0.00024046638  0.00014148402  9.8982367e-05  0              497.31696      994.5666       0.067322305    0             -11.865165      0              0              18.922728      18.962589      0.2            358.82391    
     23800   7.5369252e-05  0.00024244341  0.00014256857  9.9874839e-05  0              499.07178      998.306       -0.16244504     0             -11.911369      0              0              18.922538      18.962566      0.2            358.81989    
     23900   7.5428919e-05  0.00024442852  0.00014367253  0.00010075598  0              501.10519      1002.124       0.086348918    0             -11.950873      0              0              18.922348      18.962533      0.2            358.81566    
     24000   7.5386216e-05  0.00024642168  0.00014477345  0.00010164822  0              502.98901      1005.8979      0.080168064    0             -11.994634      0              0              18.922159      18.962505      0.2            358.81154    
     24100   7.5562796e-05  0.00024842308  0.00014587237  0.00010255071  0              504.73406      1009.6313     -0.16313726     0             -12.041056      0              0              18.921969      18.962483      0.2            358.80751    
     24200   7.5680466e-05  0.00025043249  0.00014698949  0.00010344299  0              506.75833      1013.4434      0.073281721    0             -12.078483      0              0              18.921779      18.96245       0.2            358.80329    
     24300   7.5758983e-05  0.00025244997  0.00014810368  0.00010434629  0              508.65416      1017.2149      0.093400368    0             -12.126023      0              0              18.92159       18.962421      0.2            358.79915    
     24400   7.5861508e-05  0.00025447564  0.00014921465  0.00010526099  0              510.39049      1020.9432     -0.16219853     0             -12.172252      0              0              18.9214        18.962398      0.2            358.79512    
     24500   7.5960093e-05  0.00025650923  0.00015034305  0.00010616619  0              512.40224      1024.7442      0.060265576    0             -12.201302      0              0              18.92121       18.962365      0.2            358.7909     
     24600   7.5943709e-05  0.00025855117  0.00015147068  0.00010708049  0              514.31178      1028.5185      0.10505666     0             -12.232624      0              0              18.921021      18.962336      0.2            358.78675    
     24700   7.6076512e-05  0.00026060118  0.00015259185  0.00010800933  0              516.03554      1032.2315     -0.16037836     0             -12.273921      0              0              18.920831      18.962314      0.2            358.78273    
     24800   7.6109396e-05  0.0002626593   0.00015373139  0.00010892791  0              518.03441      1036.0215      0.047339752    0             -12.310755      0              0              18.920641      18.962281      0.2            358.77852    
     24900   7.6210002e-05  0.00026472562  0.0001548705   0.00010985513  0              519.95131      1039.7864      0.11624169     0             -12.35019       0              0              18.920452      18.962252      0.2            358.77437    
     25000   7.6374405e-05  0.00026679989  0.000156003    0.00011079689  0              521.6658       1043.4885     -0.15689322     0             -12.390769      0              0              18.920262      18.96223       0.2            358.77036    
     25100   7.6458834e-05  0.00026888213  0.00015715323  0.0001117289   0              523.64756      1047.263       0.032130284    0             -12.423506      0              0              18.920072      18.962198      0.2            358.76615    
     25200   7.6486247e-05  0.00027097255  0.00015830407  0.00011266848  0              525.57334      1051.0201      0.12655019     0             -12.458862      0              0              18.919883      18.962167      0.2            358.76198    
     25300   7.6708745e-05  0.00027307113  0.00015944743  0.00011362371  0              527.28411      1054.7209     -0.15270823     0             -12.497533      0              0              18.919693      18.962146      0.2            358.75797    
     25400   7.6959729e-05  0.00027517757  0.00016060753  0.00011457004  0              529.25604      1058.4939      0.018207391    0             -12.526199      0              0              18.919503      18.962113      0.2            358.75377    
     25500   7.7142756e-05  0.00027729166  0.00016176804  0.00011552362  0              531.19324      1062.2519      0.13460845     0             -12.561066      0              0              18.919314      18.962082      0.2            358.74958    
     25600   7.7054613e-05  0.00027941393  0.00016292004  0.00011649389  0              532.89908      1065.9453     -0.14717084     0             -12.612306      0              0              18.919124      18.96206       0.2            358.74556    
     25700   7.7324968e-05  0.00028154425  0.00016408973  0.00011745452  0              534.86069      1069.7168      0.0045351889   0             -12.656384      0              0              18.918934      18.962028      0.2            358.74135    
     25800   7.7641822e-05  0.00028368245  0.00016526243  0.00011842002  0              536.81136      1073.4802      0.14247433     0             -12.698648      0              0              18.918745      18.961996      0.2            358.73715    
     25900   7.7738305e-05  0.00028582847  0.00016642591  0.00011940256  0              538.51721      1077.174      -0.1395642      0             -12.751381      0              0              18.918555      18.961973      0.2            358.73312    
     26000   7.7631849e-05  0.0002879829   0.00016760795  0.00012037494  0              540.46888      1080.9473     -0.0095390648   0             -12.797604      0              0              18.918365      18.961941      0.2            358.72892    
     26100   7.7733737e-05  0.00029014556  0.00016879575  0.00012134982  0              542.43867      1084.7284      0.14891798     0             -12.846032      0              0              18.918176      18.961909      0.2            358.72471    
     26200   7.7746564e-05  0.00029231628  0.00016997358  0.0001223427   0              544.14932      1088.4314     -0.13274464     0             -12.901655      0              0              18.917986      18.961886      0.2            358.72069    
     26300   7.7788708e-05  0.00029449513  0.00017116757  0.00012332756  0              546.08993      1092.2036     -0.023762168    0             -12.95399       0              0              18.917796      18.961854      0.2            358.71649    
     26400   7.8164523e-05  0.00029668199  0.00017236757  0.00012431443  0              548.06986      1095.9859      0.15381711     0             -13.007515      0              0              18.917606      18.961821      0.2            358.71226    
     26500   7.8413934e-05  0.00029887648  0.00017355518  0.0001253213   0              549.7794       1099.6818     -0.12297022     0             -13.06709       0              0              18.917417      18.961798      0.2            358.70823    
     26600   7.8397386e-05  0.00030107898  0.00017475771  0.00012632127  0              551.69888      1103.4352     -0.037409171    0             -13.116277      0              0              18.917227      18.961766      0.2            358.70404    
     26700   7.8503794e-05  0.0003032897   0.0001759679   0.00012732181  0              553.68048      1107.2023      0.15864042     0             -13.164093      0              0              18.917037      18.961733      0.2            358.69981    
     26800   7.8797943e-05  0.00030550827  0.00017716676  0.00012834152  0              555.38659      1110.8864     -0.11325666     0             -13.21768       0              0              18.916848      18.96171       0.2            358.69577    
     26900   7.8866954e-05  0.00030773476  0.00017838097  0.00012935379  0              557.29         1114.6315     -0.051544813    0             -13.261978      0              0              18.916658      18.961679      0.2            358.6916     
     27000   7.8801121e-05  0.00030996946  0.00017960426  0.0001303652   0              559.28362      1118.4048      0.16246499     0             -13.302987      0              0              18.916468      18.961646      0.2            358.68737    
     27100   7.8999768e-05  0.00031221231  0.00018081481  0.0001313975   0              560.99461      1122.0925     -0.10325376     0             -13.352805      0              0              18.916279      18.961623      0.2            358.68335    
     27200   7.886262e-05   0.00031446339  0.0001820396   0.0001324238   0              562.8833       1125.8308     -0.064149801    0             -13.396124      0              0              18.916089      18.961593      0.2            358.67919    
     27300   7.906027e-05   0.00031672254  0.00018327432  0.00013344822  0              564.87996      1129.5953      0.1646351      0             -13.435784      0              0              18.915899      18.961559      0.2            358.67495    
     27400   7.9021551e-05  0.00031898972  0.00018449672  0.00013449301  0              566.58918      1133.2717     -0.093322982    0             -13.485826      0              0              18.91571       18.961536      0.2            358.67092    
     27500   7.9198787e-05  0.00032126511  0.00018573401  0.0001355311   0              568.46018      1136.9978     -0.077440312    0             -13.530254      0              0              18.91552       18.961507      0.2            358.66677    
     27600   7.9377516e-05  0.00032354843  0.00018698295  0.00013656548  0              570.46699      1140.7674      0.16658095     0             -13.5694        0              0              18.91533       18.961473      0.2            358.66253    
     27700   7.9473512e-05  0.00032583968  0.00018821892  0.00013762076  0              572.18268      1144.4475     -0.082097974    0             -13.617606      0              0              18.915141      18.96145       0.2            358.65849    
     27800   7.9653928e-05  0.00032813905  0.00018946811  0.00013867094  0              574.04231      1148.1725     -0.087922089    0             -13.658474      0              0              18.914951      18.961422      0.2            358.65436    
     27900   7.9752386e-05  0.00033044635  0.00019072851  0.00013971783  0              576.05056      1151.9363      0.16480091     0             -13.698517      0              0              18.914761      18.961388      0.2            358.65012    
     28000   7.9916255e-05  0.00033276177  0.00019197603  0.00014078573  0              577.76952      1155.6069     -0.067900397    0             -13.74343       0              0              18.914572      18.961365      0.2            358.64609    
     28100   8.0032158e-05  0.00033508517  0.0001932352   0.00014184997  0              579.60353      1159.3067     -0.099659323    0             -13.786413      0              0              18.914382      18.961337      0.2            358.64197    
     28200   8.0130853e-05  0.00033741658  0.00019450893  0.00014290765  0              581.6102       1163.057       0.16337754     0             -13.820145      0              0              18.914192      18.961303      0.2            358.63772    
     28300   8.0112985e-05  0.00033975616  0.00019577038  0.00014398577  0              583.33934      1166.7338     -0.05514537     0             -13.85932       0              0              18.914003      18.961279      0.2            358.63368    
     28400   8.0281165e-05  0.00034210373  0.00019704132  0.00014506242  0              585.16566      1170.4415     -0.11022022     0             -13.898715      0              0              18.913813      18.961252      0.2            358.62957    
     28500   8.056413e-05   0.00034445918  0.00019832633  0.00014613285  0              587.17965      1174.1996      0.15967993     0             -13.935252      0              0              18.913623      18.961217      0.2            358.62532    
[...]
    192800   0.00011414223  0.015150012    0.0076361539   0.0075138583   0              3598.9364      7198.3835     -0.51081228     0             -99.728243      0              0              18.601984      18.909458      0.2            351.75345    
    192900   0.00011408951  0.015165738    0.0076440973   0.0075216412   0              3601.1179      7202.1939      0.041922815    0             -99.749075      0              0              18.601795      18.909414      0.2            351.74904    
    193000   0.00011414288  0.015181473    0.0076520078   0.0075294653   0              3603.2228      7205.9733      0.47236656     0             -99.769004      0              0              18.601605      18.909373      0.2            351.74469    
    193100   0.00011425782  0.015197216    0.0076596125   0.0075376033   0              3604.5045      7209.4978     -0.48882361     0             -99.809342      0              0              18.601415      18.909362      0.2            351.74089    
    193200   0.00011409882  0.015212967    0.0076675352   0.0075454317   0              3606.6365      7213.2859     -0.012914046    0             -99.826381      0              0              18.601226      18.909319      0.2            351.73651    
    193300   0.00011421421  0.015228726    0.0076754641   0.0075532623   0              3608.7915      7217.0811      0.50190007     0             -99.846552      0              0              18.601036      18.909276      0.2            351.73212    
    193400   0.00011418356  0.015244494    0.0076830715   0.0075614228   0              3610.0774      7220.6153     -0.46042072     0             -99.896424      0              0              18.600846      18.909265      0.2            351.72833    
    193500   0.00011455611  0.01526027     0.007690954    0.0075693161   0              3612.1539      7224.3774     -0.069653112    0             -99.926761      0              0              18.600657      18.909224      0.2            351.72399    
    193600   0.00011489491  0.015276054    0.0076988728   0.0075771809   0              3614.3467      7228.1671      0.52638655     0             -99.963602      0              0              18.600467      18.909179      0.2            351.71957    
    193700   0.00011489747  0.015291846    0.0077064485   0.0075853973   0              3615.6245      7231.6755     -0.42650699     0             -100.03386      0              0              18.600277      18.909168      0.2            351.71577    
    193800   0.00011513436  0.015307646    0.0077142913   0.0075933546   0              3617.639       7235.4042     -0.12624077     0             -100.08833      0              0              18.600088      18.90913       0.2            351.71147    
    193900   0.0001153922   0.015323454    0.0077222111   0.0076012432   0              3619.8722      7239.1983      0.54608606     0             -100.13922      0              0              18.599898      18.909083      0.2            351.70701    
    194000   0.00011563163  0.015339271    0.0077297789   0.007609492    0              3621.1561      7242.7009     -0.38877763     0             -100.21559      0              0              18.599708      18.909071      0.2            351.70321    
    194100   0.00011572882  0.015355096    0.0077375975   0.0076174987   0              3623.1143      7246.4096     -0.18106736     0             -100.26884      0              0              18.599519      18.909035      0.2            351.69895    
    194200   0.00011591823  0.01537093     0.0077455353   0.0076253945   0              3625.3853      7250.2099      0.56076825     0             -100.31549      0              0              18.599329      18.908988      0.2            351.69448    
    194300   0.00011627654  0.015386772    0.0077531071   0.0076336651   0              3626.6816      7253.7098     -0.34651815     0             -100.39098      0              0              18.599139      18.908976      0.2            351.69068    
    194400   0.00011671063  0.015402623    0.0077609004   0.0076417225   0              3628.5732      7257.3814     -0.23496844     0             -100.44502      0              0              18.59895       18.908942      0.2            351.68647    
    194500   0.00011730162  0.015418482    0.0077688395   0.0076496424   0              3630.868       7261.1691      0.5669741      0             -100.48797      0              0              18.59876       18.908894      0.2            351.68198    
    194600   0.00011769803  0.015434349    0.0077764041   0.0076579452   0              3632.1767      7264.6523     -0.29893032     0             -100.56248      0              0              18.59857       18.908882      0.2            351.67816    
    194700   0.00011793582  0.015450226    0.0077841616   0.0076660647   0              3634.0023      7268.292      -0.28728587     0             -100.62013      0              0              18.598381      18.90885       0.2            351.67399    
    194800   0.00011868353  0.015466112    0.0077920912   0.0076740209   0              3636.3204      7272.0707      0.57008687     0             -100.65683      0              0              18.598191      18.908801      0.2            351.66949    
    194900   0.00011945268  0.015482007    0.0077996253   0.0076823813   0              3637.6446      7275.5377     -0.24838697     0             -100.71603      0              0              18.598001      18.908788      0.2            351.66566    
    195000   0.00012008591  0.01549791     0.0078073128   0.0076905977   0              3639.3963      7279.131      -0.33836136     0             -100.76094      0              0              18.597811      18.908759      0.2            351.66154    
    195100   0.00012109602  0.015513798    0.007815208    0.0076985904   0              3641.7291      7282.8917      0.5664719      0             -100.78184      0              0              18.597622      18.90871       0.2            351.65703    
    195200   0.00012173258  0.015529635    0.0078227264   0.0077069086   0              3643.0797      7286.3537     -0.19437493     0             -100.82306      0              0              18.597432      18.908696      0.2            351.65319    
    195300   0.00012278062  0.015545477    0.0078303733   0.0077151032   0              3644.7655      7289.9139     -0.38289506     0             -100.84962      0              0              18.597242      18.90867       0.2            351.64913    
    195400   0.00012354916  0.015561323    0.0078382761   0.0077230469   0              3647.1172      7293.6795      0.55489508     0             -100.8547       0              0              18.597053      18.90862       0.2            351.64461    
    195500   0.0001245888   0.015577175    0.0078458091   0.0077313655   0              3648.5086      7297.1564     -0.13909292     0             -100.88955      0              0              18.596863      18.908606      0.2            351.64075    
    195600   0.0001257662   0.015593031    0.0078534212   0.0077396098   0              3650.136       7300.697      -0.42490579     0             -100.91489      0              0              18.596673      18.908582      0.2            351.63673    
    195700   0.00012695451  0.015608893    0.007861312    0.0077475808   0              3652.4972      7304.4536      0.54071046     0             -100.91609      0              0              18.596484      18.908533      0.2            351.63222    
    195800   0.00012835743  0.01562476     0.0078688534   0.0077559066   0              3653.9222      7307.9262     -0.081783491    0             -100.94961      0              0              18.596294      18.908517      0.2            351.62835    
    195900   0.00013018908  0.015640633    0.0078764356   0.0077641972   0              3655.4867      7311.438      -0.46458731     0             -100.98014      0              0              18.596104      18.908498      0.2            351.62439    
    196000   0.0001317744   0.015656511    0.00788431     0.007772201    0              3657.8553      7315.1906      0.5199584      0             -100.98811      0              0              18.595915      18.908448      0.2            351.61989    
    196100   0.00013377206  0.015672396    0.00789184     0.0077805559   0              3659.3212      7318.6666     -0.024178754    0             -101.01756      0              0              18.595725      18.908433      0.2            351.61602    
    196200   0.00013571208  0.015688288    0.0078993753   0.0077889123   0              3660.8258      7322.1504     -0.49869961     0             -101.03887      0              0              18.595535      18.908416      0.2            351.61212    
    196300   0.0001373463   0.015704187    0.0079072254   0.0077969618   0              3663.1903      7325.8877      0.49293115     0             -101.02706      0              0              18.595346      18.908367      0.2            351.60763    
    196400   0.0001386056   0.015720096    0.0079147584   0.0078053378   0              3664.703       7329.3707      0.035298093    0             -101.03729      0              0              18.595156      18.908351      0.2            351.60373    
    196500   0.0001394314   0.015736016    0.0079222816   0.007813734    0              3666.1577      7332.8421     -0.52678896     0             -101.05477      0              0              18.594966      18.908336      0.2            351.59987    
    196600   0.00014011506  0.015751946    0.0079301614   0.0078217841   0              3668.5276      7336.595       0.46025432     0             -101.05417      0              0              18.594777      18.908288      0.2            351.59539    
    196700   0.0001404276   0.015767887    0.0079377617   0.007830125    0              3670.1053      7340.1162      0.094485188    0             -101.07935      0              0              18.594587      18.90827       0.2            351.59147    
    196800   0.00014020269  0.01578384     0.0079453154   0.0078385244   0              3671.5206      7343.592      -0.5508035      0             -101.10868      0              0              18.594397      18.908258      0.2            351.58766    
    196900   0.00013987627  0.015799805    0.0079532466   0.0078465583   0              3673.8985      7347.3745      0.42256622     0             -101.11499      0              0              18.594208      18.908211      0.2            351.5832     
    197000   0.0001393418   0.015815782    0.0079609215   0.0078548601   0              3675.5512      7350.9491      0.15337019     0             -101.15208      0              0              18.594018      18.908191      0.2            351.57924    
    197100   0.00013878787  0.01583177     0.0079685257   0.0078632446   0              3676.945       7354.4589     -0.56900793     0             -101.21377      0              0              18.593828      18.90818       0.2            351.57546    
    197200   0.00013860788  0.01584777     0.007976514    0.0078712561   0              3679.3271      7358.2737      0.38054528     0             -101.2532       0              0              18.593639      18.908133      0.2            351.571      
    197300   0.00013810249  0.015863781    0.0079842729   0.007879508    0              3681.0557      7361.8998      0.21153872     0             -101.32298      0              0              18.593449      18.908111      0.2            351.56699    
    197400   0.00013729728  0.015879803    0.0079919082   0.0078878943   0              3682.4219      7365.4239     -0.58017184     0             -101.42212      0              0              18.593259      18.908101      0.2            351.56323    
    197500   0.00013660092  0.015895835    0.0079999443   0.007895891    0              3684.7965      7369.2598      0.33317367     0             -101.50088      0              0              18.59307       18.908055      0.2            351.55879    
    197600   0.00013565084  0.015911879    0.0080077867   0.0079040925   0              3686.6         7372.9324      0.26752654     0             -101.60648      0              0              18.59288       18.90803       0.2            351.55474    
    197700   0.00013504633  0.015927934    0.0080154574   0.0079124764   0              3687.9363      7376.4578     -0.58525186     0             -101.73157      0              0              18.59269       18.908023      0.2            351.55101    
    197800   0.00013458694  0.015943998    0.0080235144   0.0079204839   0              3690.2878      7380.2931      0.28240648     0             -101.82953      0              0              18.592501      18.907978      0.2            351.54659    
    197900   0.0001338663   0.015960073    0.0080313909   0.0079286823   0              3692.1459      7383.9725      0.31920583     0             -101.94543      0              0              18.592311      18.907951      0.2            351.5425     
    198000   0.00013329245  0.015976158    0.0080390643   0.0079370938   0              3693.4495      7387.4823     -0.58323636     0             -102.07959      0              0              18.592121      18.907944      0.2            351.53878    
    198100   0.00013270652  0.015992253    0.0080471396   0.0079451136   0              3695.767       7391.3056      0.22844575     0             -102.18349      0              0              18.591932      18.9079        0.2            351.53437    
    198200   0.0001322143   0.016008358    0.0080550868   0.0079532714   0              3697.6917      7395.0147      0.36879256     0             -102.29984      0              0              18.591742      18.907869      0.2            351.53023    
    198300   0.00013147241  0.016024473    0.0080628049   0.0079616684   0              3698.9787      7398.5352     -0.57778886     0             -102.43732      0              0              18.591552      18.907863      0.2            351.52652    
    198400   0.00013076574  0.016040598    0.0080709151   0.007969683    0              3701.2677      7402.363       0.17239251     0             -102.54402      0              0              18.591362      18.90782       0.2            351.52213    
    198500   0.00012993754  0.016056733    0.0080789282   0.007977805    0              3703.262       7406.1079      0.41613419     0             -102.6525       0              0              18.591173      18.907787      0.2            351.51793    
    198600   0.00012947955  0.016072878    0.0080866703   0.0079862078   0              3704.5346      7409.6341     -0.5649573      0             -102.77761      0              0              18.590983      18.90778       0.2            351.51422    
    198700   0.00012894581  0.016089032    0.0080947918   0.0079942405   0              3706.7859      7413.4577      0.11405807     0             -102.86733      0              0              18.590793      18.907737      0.2            351.50984    
    198800   0.00012856904  0.016105196    0.0081028605   0.0080023357   0              3708.8419      7417.2256      0.45823124     0             -102.9586       0              0              18.590604      18.907702      0.2            351.50559    
    198900   0.00012795515  0.016121369    0.0081106301   0.0080107393   0              3710.1016      7420.7493     -0.54618752     0             -103.07669      0              0              18.590414      18.907695      0.2            351.50188    
    199000   0.00012770071  0.016137552    0.0081187571   0.0080187947   0              3712.3038      7424.5543      0.053267218    0             -103.16122      0              0              18.590224      18.907653      0.2            351.49752    
    199100   0.00012722917  0.016153744    0.008126851    0.0080268926   0              3714.4148      7428.3345      0.4951395      0             -103.24514      0              0              18.590035      18.907615      0.2            351.49322    
    199200   0.00012682225  0.016169944    0.0081346226   0.0080353219   0              3715.6676      7431.855      -0.51981304     0             -103.34427      0              0              18.589845      18.907608      0.2            351.4895     
    199300   0.00012628564  0.016186155    0.0081427445   0.0080434101   0              3717.8178      7435.6447     -0.0090695914   0             -103.41567      0              0              18.589655      18.907568      0.2            351.48517    
    199400   0.00012597338  0.016202374    0.0081508798   0.0080514943   0              3719.9841      7439.4403      0.52792092     0             -103.48679      0              0              18.589466      18.907527      0.2            351.48083    
    199500   0.00012526539  0.016218603    0.0081586718   0.0080599311   0              3721.2408      7442.9684     -0.4867658      0             -103.58621      0              0              18.589276      18.90752       0.2            351.4771     
    199600   0.0001250764   0.016234841    0.0081668028   0.0080680381   0              3723.3479      7446.7667     -0.070799358    0             -103.65801      0              0              18.589086      18.907481      0.2            351.4728     
    199700   0.00012501075  0.016251088    0.0081749778   0.00807611     0              3725.5774      7450.6026      0.55228834     0             -103.71875      0              0              18.588897      18.907438      0.2            351.46842    
    199800   0.00012466485  0.016267343    0.0081827904   0.0080845531   0              3726.8492      7454.1486     -0.4501287      0             -103.80213      0              0              18.588707      18.907431      0.2            351.46469    
    199900   0.0001244812   0.016283608    0.0081909127   0.0080926955   0              3728.899       7457.9278     -0.12971593     0             -103.86157      0              0              18.588517      18.907394      0.2            351.46042    
    200000   0.00012439241  0.016299882    0.0081991316   0.00810075     0              3731.1727      7461.7738      0.57160777     0             -103.90919      0              0              18.588328      18.907349      0.2            351.456      
    200003   0.00012437236  0.01630037     0.0081993782   0.0081009918   0              3731.2407      7461.889       0.59234538     0             -103.91056      0              0              18.588322      18.907348      0.2            351.45586    
Loop time of 36.7559 on 1 procs for 200000 steps with 200 atoms

Performance: 4701.286 ns/day, 0.005 hours/ns, 5441.303 timesteps/s
99.8% CPU use with 1 MPI tasks x 1 OpenMP threads

MPI task timing breakdown:
Section |  min time  |  avg time  |  max time  |%varavg| %total
---------------------------------------------------------------
Pair    | 0          | 0          | 0          |   0.0 |  0.00
Bond    | 28.88      | 28.88      | 28.88      |   0.0 | 78.57
Neigh   | 0          | 0          | 0          |   0.0 |  0.00
Comm    | 1.9674     | 1.9674     | 1.9674     |   0.0 |  5.35
Output  | 0.18352    | 0.18352    | 0.18352    |   0.0 |  0.50
Modify  | 5.4774     | 5.4774     | 5.4774     |   0.0 | 14.90
Other   |            | 0.2478     |            |       |  0.67

Nlocal:            200 ave         200 max         200 min
Histogram: 1 0 0 0 0 0 0 0 0 0
Nghost:            649 ave         649 max         649 min
Histogram: 1 0 0 0 0 0 0 0 0 0
Neighs:              0 ave           0 max           0 min
Histogram: 1 0 0 0 0 0 0 0 0 0

Total # of neighbors = 0
Ave neighs/atom = 0
Ave special neighs/atom = 18.26
Neighbor list builds = 0
Dangerous builds = 0
Total wall time: 0:00:36
