LAMMPS (23 Jun 2022 - Update 4)
OMP_NUM_THREADS environment is not set. Defaulting to 1 thread. (src/comm.cpp:98)
  using 1 OpenMP thread(s) per MPI task

variable dt equal 0.01
variable strain equal 0.02
variable srate equal 1e-05
variable M equal 1000 # averaging time for properties
variable strainsteps equal ${strain}/${dt}/${srate}
variable strainsteps equal 0.02/${dt}/${srate}
variable strainsteps equal 0.02/0.01/${srate}
variable strainsteps equal 0.02/0.01/1e-05


dimension 2
include init.mod

# NOTE: This script can be modified for different atomic structures,
# units, etc. See in.elastic for more info.
#

# Define the finite deformation size. Try several values of this
# variable to verify that results do not depend on it.
# variable up equal 1.0e-1

# Define the amount of random jiggle for atoms
# This prevents atoms from staying on saddle points
# variable atomjiggle equal 1.0e-6

# Uncomment one of these blocks, depending on what units
# you are using in LAMMPS and for output

# metal units, elastic constants in eV/A^3
#units		metal
#variable cfac equal 6.2414e-7
#variable cunits string eV/A^3

# Choose potential
# metal units, elastic constants in GPa
units		metal
atom_style	full
#pair_style      lj/cut 1.0
#pair_style      yukawa 1.0 2.0
#pair_modify     mix arithmetic
bond_style      harmonic
angle_style     harmonic
dihedral_style  zero
special_bonds   amber
variable cfac equal 1.0e-4
variable cunits string GPa
boundary	p p p

# Need to set mass to something, just to satisfy LAMMPS
#mass 1 1.0e-20
read_data network.lmp
Reading data file ...
  triclinic box = (-9.483836 -9.483836 -0.1) to (9.483836 9.483836 0.1) with tilt (0 0 0)
  1 by 1 by 1 MPI processor grid
WARNING: Atom style in data file differs from currently defined atom style (src/read_data.cpp:538)
  reading atoms ...
  200 atoms
WARNING: Bond style in data file differs from currently defined bond style (src/read_data.cpp:630)
  scanning bonds ...
  6 = max bonds/atom
WARNING: Angle style in data file differs from currently defined angle style (src/read_data.cpp:641)
  scanning angles ...
  21 = max angles/atom
  reading bonds ...
  505 bonds
  reading angles ...
  2118 angles
Finding 1-2 1-3 1-4 neighbors ...
  special bond factors lj:    0        0        0.5     
  special bond factors coul:  0        0        0.8333333333333334
     7 = max # of 1-2 neighbors
    32 = max # of 1-3 neighbors
   174 = max # of 1-4 neighbors
    38 = max # of special neighbors
  special bonds CPU = 0.001 seconds
  read_data CPU = 0.017 seconds

# real units, elastic constants in GPa
#units		real
#variable cfac equal 1.01325e-4
#variable cunits string GPa

# Define minimization parameters
variable etol equal 0.0
variable ftol equal 5.0e-13
variable maxiter equal 100000
variable maxeval equal 20000
variable dmax equal 1.0e-2
include potential.mod

# NOTE: This script can be modified for different pair styles
# See in.elastic for more info.

# Setup neighbor style
neighbor 3.0 nsq
neigh_modify once no every 1 delay 0 check yes
comm_modify cutoff 6.0

# Setup minimization style
min_style	     cg
min_modify	     dmax ${dmax} line quadratic
min_modify	     dmax 0.01 line quadratic

timestep	0.001


# Setup output
thermo		500
thermo_style custom step temp pe ebond eangle edihed press pxx pyy pzz pxy pxz pyz lx ly lz vol
# thermo_style custom step temp atoms vx vy vz
thermo_modify norm no


#change_box all triclinic
comm_modify mode single cutoff 10.0 vel yes
atom_modify sort 0 0


# Compute initial state
fix 3 all box/relax x 0 y 0 # xy 0  #MS comment: relax if the network is periodic
minimize ${etol} ${ftol} ${maxiter} ${maxeval}
minimize 0 ${ftol} ${maxiter} ${maxeval}
minimize 0 5e-13 ${maxiter} ${maxeval}
minimize 0 5e-13 100000 ${maxeval}
minimize 0 5e-13 100000 20000
Neighbor list info ...
  update every 1 steps, delay 0 steps, check yes
  max neighbors/atom: 2000, page size: 100000
  master list distance cutoff = 0
  ghost atom cutoff = 10
  0 neighbor lists, perpetual/occasional/extra = 0 0 0
WARNING: Inconsistent image flags (src/domain.cpp:819)
Per MPI rank memory allocation (min/avg/max) = 14.75 | 14.75 | 14.75 Mbytes
   Step          Temp          PotEng         E_bond        E_angle        E_dihed         Press           Pxx            Pyy            Pzz            Pxy            Pxz            Pyz             Lx             Ly             Lz           Volume    
         0   0              4.7431818e-11  4.3430011e-11  4.0018071e-12  0             -0.014723368   -0.013878409   -0.015568326    0             -0.020716099    0              0              18.967672      18.967672      0.2            359.77258    
       251   0              3.8201633e-12  2.6009992e-12  1.2191641e-12  0             -1.6893937e-11 -5.464771e-10   5.1268923e-10  0             -0.013417123    0              0              18.967672      18.967672      0.2            359.77257    
Loop time of 0.0912315 on 1 procs for 251 steps with 200 atoms

99.8% CPU use with 1 MPI tasks x 1 OpenMP threads

Minimization stats:
  Stopping criterion = force tolerance
  Energy initial, next-to-last, final = 
    4.74318178677027e-11 3.82016326202899e-12 3.82016326223901e-12
  Force two-norm initial, final = 1.6318984e-05 4.4525146e-13
  Force max component initial, final = 3.4959051e-06 1.2271274e-13
  Final line search alpha, max atom move = 1 1.2271274e-13
  Iterations, force evaluations = 251 502

MPI task timing breakdown:
Section |  min time  |  avg time  |  max time  |%varavg| %total
---------------------------------------------------------------
Pair    | 0          | 0          | 0          |   0.0 |  0.00
Bond    | 0.07479    | 0.07479    | 0.07479    |   0.0 | 81.98
Neigh   | 0          | 0          | 0          |   0.0 |  0.00
Comm    | 0.0047743  | 0.0047743  | 0.0047743  |   0.0 |  5.23
Output  | 0          | 0          | 0          |   0.0 |  0.00
Modify  | 0          | 0          | 0          |   0.0 |  0.00
Other   |            | 0.01167    |            |       | 12.79

Nlocal:            200 ave         200 max         200 min
Histogram: 1 0 0 0 0 0 0 0 0 0
Nghost:            649 ave         649 max         649 min
Histogram: 1 0 0 0 0 0 0 0 0 0
Neighs:              0 ave           0 max           0 min
Histogram: 1 0 0 0 0 0 0 0 0 0

Total # of neighbors = 0
Ave neighs/atom = 0
Ave special neighs/atom = 32.87
Neighbor list builds = 0
Dangerous builds = 0
thermo 100
# thermo_style custom step atoms temp press c_vx c_vy c_vz
unfix 3
fix 2d all enforce2d


# These formulas define the derivatives w.r.t. strain components
# Constants uses $, variables use v_
timestep        ${dt}
timestep        0.01
variable nsteps equal round(${strainsteps})
variable nsteps equal round(200000)

#fix             4 all nve
#fix		     6 all press/berendsen y  0.0 0.0 1 x 0.0 0.0 10
#fix             6 all npt temp 0.0001 0.0001 1000.0 y 0.0 0.0 1000.0
fix             5 all langevin 1e-07 1e-07 10.0 904297
fix             6 all nph y 0.0 0.0 1000.0 ptemp 0.0001
fix     	     9 all deform 1 x erate -${srate} units box remap x
fix     	     9 all deform 1 x erate -1e-05 units box remap x

# For PLUMED2
# fix 22 all plumed plumedfile plumed.dat outfile plumed.out

#To avoid flying ice cube phenomenon:
fix 21 all momentum 100 linear 1 1 1 angular

dump 1 all custom 200 dump.lammpstrj id x y z vx vy vz
run  ${nsteps}
run  200000
WARNING: Inconsistent image flags (src/domain.cpp:819)
Per MPI rank memory allocation (min/avg/max) = 13.62 | 13.62 | 13.62 Mbytes
   Step          Temp          PotEng         E_bond        E_angle        E_dihed         Press           Pxx            Pyy            Pzz            Pxy            Pxz            Pyz             Lx             Ly             Lz           Volume    
       251   0              3.8201633e-12  2.6009992e-12  1.2191641e-12  0             -7.4165737e-11 -5.9459672e-10  4.4626525e-10  0             -0.013417123    0              0              18.967672      18.967672      0.2            359.77257    
       300   8.4394607e-09  2.9090678e-09  2.6627808e-09  2.4628699e-10  0              2.6478957      5.3703786     -0.074587236    0              0.013093539    0              0              18.967579      18.967698      0.2            359.77131    
       400   2.6365879e-08  2.7566641e-08  2.5270148e-08  2.2964929e-09  0              8.2428969      16.57908      -0.093286344    0              0.070998083    0              0              18.967389      18.967751      0.2            359.76871    
       500   5.7831039e-08  7.7095721e-08  7.0663684e-08  6.432037e-09   0              13.813043      27.736792     -0.11070565     0              0.1256889      0              0              18.967199      18.967803      0.2            359.76611    
       600   1.1570706e-07  1.5088611e-07  1.382274e-07   1.2658714e-08  0              19.338712      38.805595     -0.12817189     0              0.18343977     0              0              18.96701       18.967856      0.2            359.76351    
       700   2.4228439e-07  2.4807826e-07  2.270922e-07   2.0986062e-08  0              24.8039        49.752323     -0.14452262     0              0.24548601     0              0              18.96682       18.967909      0.2            359.76091    
       800   4.4234208e-07  3.6768064e-07  3.3625785e-07  3.1422791e-08  0              30.194887      60.550393     -0.16061905     0              0.30879362     0              0              18.96663       18.967961      0.2            359.75831    
       900   7.5246529e-07  5.0869716e-07  4.6469962e-07  4.3997543e-08  0              35.503926      71.183109     -0.1752567      0              0.3745976      0              0              18.966441      18.968013      0.2            359.7557     
      1000   1.1769731e-06  6.7014382e-07  6.1138474e-07  5.875908e-08   0              40.723422      81.636086     -0.18924152     0              0.44054829     0              0              18.966251      18.968066      0.2            359.7531     
      1100   1.7372585e-06  8.5116494e-07  7.7541374e-07  7.5751202e-08  0              45.850275      91.902426     -0.20187635     0              0.50802313     0              0              18.966061      18.968119      0.2            359.7505     
      1200   2.3766314e-06  1.0509886e-06  9.5595582e-07  9.5032732e-08  0              50.882178      101.97786     -0.21350489     0              0.58065165     0              0              18.965872      18.968171      0.2            359.7479     
      1300   3.1242774e-06  1.2691037e-06  1.152411e-06   1.1669265e-07  0              55.821974      111.86855     -0.22460704     0              0.66198219     0              0              18.965682      18.968224      0.2            359.74531    
      1400   3.9710594e-06  1.5050317e-06  1.3642375e-06  1.407942e-07   0              60.671635      121.57783     -0.23455647     0              0.75180538     0              0              18.965492      18.968277      0.2            359.74272    
      1500   4.8591174e-06  1.7584657e-06  1.5910098e-06  1.6745589e-07  0              65.435043      131.11277     -0.24268404     0              0.84902649     0              0              18.965303      18.96833       0.2            359.74013    
      1600   5.8244271e-06  2.029172e-06   1.8323896e-06  1.967824e-07   0              70.115616      140.48086     -0.24962526     0              0.94905155     0              0              18.965113      18.968383      0.2            359.73754    
      1700   6.7755232e-06  2.3170911e-06  2.0882451e-06  2.2884597e-07  0              74.719516      149.69415     -0.25511337     0              1.0505768      0              0              18.964923      18.968436      0.2            359.73494    
      1800   7.7839602e-06  2.6221511e-06  2.3583988e-06  2.6375231e-07  0              79.252896      158.76516     -0.25937116     0              1.1552598      0              0              18.964734      18.968489      0.2            359.73235    
      1900   8.6901149e-06  2.9444382e-06  2.6428501e-06  3.0158813e-07  0              83.725568      167.71321     -0.26206925     0              1.2614055      0              0              18.964544      18.968542      0.2            359.72976    
      2000   9.6573552e-06  3.2840555e-06  2.9416327e-06  3.4242281e-07  0              88.146222      176.55589     -0.26344419     0              1.3716084      0              0              18.964354      18.968596      0.2            359.72717    
      2100   1.0513984e-05  3.6409633e-06  3.2546075e-06  3.8635575e-07  0              92.518238      185.29987     -0.26338983     0              1.4833851      0              0              18.964165      18.968649      0.2            359.72458    
      2200   1.1331791e-05  4.0151919e-06  3.5817323e-06  4.3345964e-07  0              96.851368      193.96556     -0.26282414     0              1.5930229      0              0              18.963975      18.968702      0.2            359.722      
      2300   1.2154356e-05  4.4068176e-06  3.923026e-06   4.8379166e-07  0              101.15239      202.56454     -0.25975702     0              1.6981906      0              0              18.963785      18.968756      0.2            359.71941    
      2400   1.2900322e-05  4.815839e-06   4.2784577e-06  5.3738127e-07  0              105.4264       211.10907     -0.25626146     0              1.7998089      0              0              18.963596      18.96881       0.2            359.71683    
      2500   1.365907e-05   5.2422181e-06  4.6479542e-06  5.9426399e-07  0              109.67697      219.60496     -0.25101445     0              1.9003105      0              0              18.963406      18.968863      0.2            359.71425    
      2600   1.4287553e-05  5.6861242e-06  5.0316025e-06  6.5452165e-07  0              113.91002      228.06437     -0.24433532     0              2.0023367      0              0              18.963216      18.968917      0.2            359.71167    
      2700   1.4885713e-05  6.1475937e-06  5.4294273e-06  7.1816638e-07  0              118.13234      236.50063     -0.23596125     0              2.100469       0              0              18.963027      18.968971      0.2            359.7091     
      2800   1.557342e-05   6.6265263e-06  5.8412919e-06  7.852344e-07   0              122.34391      244.91467     -0.22685552     0              2.1963925      0              0              18.962837      18.969025      0.2            359.70653    
      2900   1.6175164e-05  7.1228967e-06  6.2672013e-06  8.5569548e-07  0              126.5474       253.31204     -0.21724349     0              2.2912089      0              0              18.962647      18.969079      0.2            359.70396    
      3000   1.6687908e-05  7.636803e-06   6.7072866e-06  9.2951648e-07  0              130.74702      261.69991     -0.20588079     0              2.3884451      0              0              18.962458      18.969134      0.2            359.70139    
      3100   1.7117417e-05  8.1684408e-06  7.161795e-06   1.0066458e-06  0              134.94807      270.08964     -0.1935066      0              2.4851066      0              0              18.962268      18.969188      0.2            359.69883    
      3200   1.753166e-05   8.7177959e-06  7.630625e-06   1.0871709e-06  0              139.15139      278.48344     -0.18066337     0              2.5789528      0              0              18.962078      18.969243      0.2            359.69626    
      3300   1.7850852e-05  9.2850209e-06  8.1139115e-06  1.1711094e-06  0              143.35974      286.88552     -0.16602837     0              2.6716542      0              0              18.961889      18.969298      0.2            359.69371    
      3400   1.8223053e-05  9.8700804e-06  8.6117037e-06  1.2583767e-06  0              147.57076      295.29224     -0.15071865     0              2.7596208      0              0              18.961699      18.969352      0.2            359.69115    
      3500   1.8581134e-05  1.0472974e-05  9.1240414e-06  1.3489322e-06  0              151.78171      303.69786     -0.13443434     0              2.8431657      0              0              18.961509      18.969407      0.2            359.68859    
      3600   1.8910115e-05  1.1093705e-05  9.6509323e-06  1.4427729e-06  0              155.99696      312.11185     -0.11793858     0              2.9208629      0              0              18.961319      18.969463      0.2            359.68604    
      3700   1.9262989e-05  1.1732227e-05  1.019224e-05   1.5399867e-06  0              160.21376      320.52831     -0.10078352     0              2.9913173      0              0              18.96113       18.969518      0.2            359.68349    
      3800   1.9591879e-05  1.2388531e-05  1.0747949e-05  1.6405817e-06  0              164.4335       328.95058     -0.083572752    0              3.0576266      0              0              18.96094       18.969573      0.2            359.68094    
      3900   1.9937641e-05  1.3062629e-05  1.1318017e-05  1.7446118e-06  0              168.65288      337.37164     -0.065882691    0              3.1288259      0              0              18.96075       18.969628      0.2            359.67839    
      4000   2.0367623e-05  1.3754373e-05  1.1902244e-05  1.8521291e-06  0              172.86748      345.78278     -0.047817424    0              3.2053112      0              0              18.960561      18.969684      0.2            359.67584    
      4100   2.0693208e-05  1.4463784e-05  1.2500649e-05  1.9631351e-06  0              177.07703      354.18346     -0.029395398    0              3.2830055      0              0              18.960371      18.969739      0.2            359.6733     
      4200   2.1046389e-05  1.519091e-05   1.3113266e-05  2.0776447e-06  0              181.28121      362.57299     -0.010579898    0              3.3625005      0              0              18.960181      18.969795      0.2            359.67075    
      4300   2.1417475e-05  1.5935699e-05  1.374005e-05   2.1956484e-06  0              185.47978      370.95161      0.0079516815   0              3.4392653      0              0              18.959992      18.96985       0.2            359.6682     
      4400   2.171896e-05   1.6698209e-05  1.4381116e-05  2.3170931e-06  0              189.67293      379.31986      0.025995084    0              3.5159658      0              0              18.959802      18.969906      0.2            359.66566    
      4500   2.2066738e-05  1.7478438e-05  1.5036382e-05  2.4420551e-06  0              193.86103      387.67693      0.045133257    0              3.59526        0              0              18.959612      18.969961      0.2            359.66311    
      4600   2.2453548e-05  1.8276295e-05  1.5705746e-05  2.5705487e-06  0              198.04494      396.02603      0.063849708    0              3.6814673      0              0              18.959423      18.970017      0.2            359.66056    
      4700   2.2781655e-05  1.9091781e-05  1.6389258e-05  2.7025228e-06  0              202.22176      404.36152      0.082011645    0              3.7763969      0              0              18.959233      18.970072      0.2            359.65802    
      4800   2.3058432e-05  1.9924944e-05  1.7086913e-05  2.8380312e-06  0              206.39253      412.68595      0.09911972     0              3.8739236      0              0              18.959043      18.970128      0.2            359.65548    
      4900   2.3401131e-05  2.0775833e-05  1.7798801e-05  2.9770329e-06  0              210.55844      421.00132      0.1155627      0              3.9758862      0              0              18.958854      18.970184      0.2            359.65294    
      5000   2.3688532e-05  2.1644352e-05  1.8524854e-05  3.1194983e-06  0              214.72098      429.31045      0.13150535     0              4.0835199      0              0              18.958664      18.97024       0.2            359.6504     
      5100   2.4113763e-05  2.2530359e-05  1.9264763e-05  3.265596e-06   0              218.87461      437.60202      0.14720978     0              4.1994461      0              0              18.958474      18.970295      0.2            359.64786    
      5200   2.447582e-05   2.3433892e-05  2.0018464e-05  3.4154274e-06  0              223.01997      445.87789      0.16204234     0              4.3177826      0              0              18.958285      18.970351      0.2            359.64532    
      5300   2.4801282e-05  2.4355067e-05  2.0786263e-05  3.5688045e-06  0              227.15931      454.14187      0.17674598     0              4.4343899      0              0              18.958095      18.970407      0.2            359.64279    
      5400   2.495266e-05   2.5294038e-05  2.1568423e-05  3.7256146e-06  0              231.29267      462.39598      0.1893483      0              4.5554458      0              0              18.957905      18.970463      0.2            359.64025    
      5500   2.5298568e-05  2.6250837e-05  2.2365003e-05  3.8858346e-06  0              235.42275      470.64408      0.20141092     0              4.6753296      0              0              18.957716      18.970519      0.2            359.63771    
      5600   2.5517093e-05  2.7225176e-05  2.3175417e-05  4.0497595e-06  0              239.5445       478.87648      0.21252771     0              4.7948924      0              0              18.957526      18.970575      0.2            359.63517    
      5700   2.5882994e-05  2.8217283e-05  2.4000023e-05  4.2172605e-06  0              243.66503      487.10724      0.22282976     0              4.9170113      0              0              18.957336      18.970631      0.2            359.63263    
      5800   2.6054484e-05  2.922707e-05   2.4838552e-05  4.3885181e-06  0              247.78029      495.32847      0.23210827     0              5.038334       0              0              18.957147      18.970687      0.2            359.63009    
      5900   2.6243312e-05  3.0254758e-05  2.569128e-05   4.5634781e-06  0              251.89469      503.54973      0.2396572      0              5.1600093      0              0              18.956957      18.970743      0.2            359.62755    
      6000   2.6549956e-05  3.1300082e-05  2.6558054e-05  4.7420272e-06  0              256.00352      511.76062      0.24641373     0              5.2833435      0              0              18.956767      18.970799      0.2            359.62502    
      6100   2.6770048e-05  3.2363152e-05  2.7438772e-05  4.9243801e-06  0              260.10888      519.96618      0.25156791     0              5.405595       0              0              18.956578      18.970855      0.2            359.62248    
      6200   2.6875064e-05  3.3444002e-05  2.8333622e-05  5.1103803e-06  0              264.21205      528.16849      0.25560765     0              5.5252304      0              0              18.956388      18.970911      0.2            359.61994    
      6300   2.706693e-05   3.4542845e-05  2.9242821e-05  5.3000241e-06  0              268.31688      536.37486      0.25889616     0              5.6464882      0              0              18.956198      18.970967      0.2            359.61741    
      6400   2.7385631e-05  3.5659352e-05  3.0165905e-05  5.4934469e-06  0              272.41948      544.57811      0.26085369     0              5.7688422      0              0              18.956009      18.971023      0.2            359.61487    
      6500   2.7567674e-05  3.6793577e-05  3.1102956e-05  5.6906206e-06  0              276.51815      552.77474      0.26156634     0              5.8877648      0              0              18.955819      18.971079      0.2            359.61234    
      6600   2.7854917e-05  3.794548e-05   3.2053912e-05  5.8915677e-06  0              280.61279      560.965        0.26058151     0              6.0074723      0              0              18.955629      18.971135      0.2            359.60981    
      6700   2.8109057e-05  3.9115023e-05  3.3018788e-05  6.0962358e-06  0              284.70152      569.14453      0.25849905     0              6.1257086      0              0              18.95544       18.971191      0.2            359.60727    
      6800   2.8282043e-05  4.0302303e-05  3.3997713e-05  6.3045899e-06  0              288.78686      577.3185       0.25522786     0              6.2358224      0              0              18.95525       18.971248      0.2            359.60474    
      6900   2.8620247e-05  4.1507202e-05  3.4990628e-05  6.5165733e-06  0              292.8717       585.49238      0.25101882     0              6.3407142      0              0              18.95506       18.971304      0.2            359.6022     
      7000   2.8898871e-05  4.2729632e-05  3.5997081e-05  6.7325506e-06  0              296.95052      593.65631      0.24472987     0              6.4456934      0              0              18.95487       18.971359      0.2            359.59966    
      7100   2.9087301e-05  4.3969859e-05  3.701765e-05   6.9522096e-06  0              301.03019      601.82275      0.23763499     0              6.5516989      0              0              18.954681      18.971415      0.2            359.59712    
      7200   2.9201436e-05  4.522792e-05   3.8052548e-05  7.1753718e-06  0              305.11097      609.99218      0.22976509     0              6.6564085      0              0              18.954491      18.971471      0.2            359.59458    
      7300   2.9388339e-05  4.6503777e-05  3.9101531e-05  7.4022458e-06  0              309.19036      618.1599       0.22082599     0              6.7623547      0              0              18.954301      18.971527      0.2            359.59203    
      7400   2.9518871e-05  4.7797439e-05  4.016458e-05   7.6328592e-06  0              313.26749      626.32467      0.21030724     0              6.8688452      0              0              18.954112      18.971582      0.2            359.58949    
      7500   2.9653095e-05  4.9108945e-05  4.1241788e-05  7.8671566e-06  0              317.3445       634.49011      0.19890029     0              6.9760181      0              0              18.953922      18.971638      0.2            359.58695    
      7600   2.9938332e-05  5.043811e-05   4.2332993e-05  8.1051167e-06  0              321.42058      642.65396      0.1871922      0              7.0820872      0              0              18.953732      18.971694      0.2            359.58441    
      7700   3.0072751e-05  5.1785036e-05  4.3438212e-05  8.3468245e-06  0              325.4953       650.81625      0.17435581     0              7.1840834      0              0              18.953543      18.971749      0.2            359.58186    
      7800   3.0099238e-05  5.3149889e-05  4.4557813e-05  8.5920755e-06  0              329.56954      658.97866      0.16041732     0              7.2822408      0              0              18.953353      18.971805      0.2            359.57932    
      7900   3.0287662e-05  5.4532654e-05  4.5691648e-05  8.8410056e-06  0              333.6432       667.14016      0.14624442     0              7.3790521      0              0              18.953163      18.971861      0.2            359.57677    
      8000   3.0484443e-05  5.5933116e-05  4.6839396e-05  9.0937204e-06  0              337.71368      675.29623      0.13112724     0              7.4749381      0              0              18.952974      18.971916      0.2            359.57423    
      8100   3.0528816e-05  5.7351438e-05  4.8001553e-05  9.3498851e-06  0              341.78438      683.45372      0.1150362      0              7.5694304      0              0              18.952784      18.971972      0.2            359.57169    
      8200   3.0702695e-05  5.8787574e-05  4.917779e-05   9.6097842e-06  0              345.85427      691.60972      0.098812079    0              7.6655283      0              0              18.952594      18.972028      0.2            359.56915    
      8300   3.0736275e-05  6.0241634e-05  5.0368147e-05  9.8734875e-06  0              349.92361      699.76516      0.082063027    0              7.765911       0              0              18.952405      18.972084      0.2            359.56661    
      8400   3.0944872e-05  6.1713544e-05  5.1572663e-05  1.0140882e-05  0              353.98919      707.913        0.065382178    0              7.8684499      0              0              18.952215      18.97214       0.2            359.56407    
      8500   3.1261092e-05  6.3203083e-05  5.2790925e-05  1.0412157e-05  0              358.04905      716.05019      0.047916142    0              7.9689709      0              0              18.952025      18.972196      0.2            359.56154    
      8600   3.1347607e-05  6.4710246e-05  5.4022596e-05  1.068765e-05   0              362.10313      724.17629      0.029975012    0              8.0704574      0              0              18.951836      18.972252      0.2            359.55901    
      8700   3.1499248e-05  6.6235246e-05  5.5268187e-05  1.0967058e-05  0              366.15295      732.29422      0.011684332    0              8.1711763      0              0              18.951646      18.972309      0.2            359.55648    
      8800   3.1598602e-05  6.7778136e-05  5.6528065e-05  1.1250071e-05  0              370.20255      740.41157     -0.0064594882   0              8.2734379      0              0              18.951456      18.972366      0.2            359.55396    
      8900   3.1694371e-05  6.9338869e-05  5.7802022e-05  1.1536846e-05  0              374.25216      748.52908     -0.024760062    0              8.3755048      0              0              18.951267      18.972422      0.2            359.55144    
      9000   3.177017e-05   7.0917481e-05  5.9090091e-05  1.182739e-05   0              378.30282      756.64852     -0.042877471    0              8.4783081      0              0              18.951077      18.972479      0.2            359.54891    
      9100   3.1957276e-05  7.2513895e-05  6.0392174e-05  1.2121721e-05  0              382.35314      764.7672      -0.060928583    0              8.5812968      0              0              18.950887      18.972536      0.2            359.54638    
      9200   3.2173538e-05  7.4127966e-05  6.1708091e-05  1.2419875e-05  0              386.40054      772.88018     -0.079093159    0              8.6814526      0              0              18.950698      18.972592      0.2            359.54386    
      9300   3.2358819e-05  7.5759724e-05  6.303793e-05   1.2721794e-05  0              390.44513      780.98582     -0.095552136    0              8.7815516      0              0              18.950508      18.972649      0.2            359.54133    
      9400   3.2565933e-05  7.7409113e-05  6.4381654e-05  1.3027459e-05  0              394.48582      789.08363     -0.11197709     0              8.8811862      0              0              18.950318      18.972705      0.2            359.5388     
      9500   3.2742759e-05  7.9076227e-05  6.5739136e-05  1.333709e-05   0              398.5223       797.17316     -0.12856424     0              8.9742696      0              0              18.950129      18.972761      0.2            359.53627    
      9600   3.2881461e-05  8.0761058e-05  6.7110625e-05  1.3650433e-05  0              402.55637      805.25655     -0.14381573     0              9.0638026      0              0              18.949939      18.972818      0.2            359.53373    
      9700   3.2948423e-05  8.2463813e-05  6.8496245e-05  1.3967568e-05  0              406.5906       813.34002     -0.15880544     0              9.1548605      0              0              18.949749      18.972874      0.2            359.5312     
      9800   3.3104026e-05  8.4184346e-05  6.9895902e-05  1.4288444e-05  0              410.62128      821.41677     -0.17420634     0              9.245801       0              0              18.94956       18.97293       0.2            359.52866    
      9900   3.3313719e-05  8.5922626e-05  7.1309329e-05  1.4613297e-05  0              414.6519       829.49146     -0.18765462     0              9.3348419      0              0              18.94937       18.972986      0.2            359.52613    
     10000   3.3389961e-05  8.7678598e-05  7.2736624e-05  1.4941974e-05  0              418.68193      837.56361     -0.19974765     0              9.4224767      0              0              18.94918       18.973042      0.2            359.52359    
     10100   3.3709705e-05  8.9452245e-05  7.4178012e-05  1.5274233e-05  0              422.71202      845.63529     -0.21124738     0              9.5114631      0              0              18.948991      18.973098      0.2            359.52105    
     10200   3.3725389e-05  9.1243631e-05  7.5633279e-05  1.5610353e-05  0              426.7419       853.70575     -0.22196189     0              9.594161       0              0              18.948801      18.973153      0.2            359.5185     
     10300   3.3834797e-05  9.3052871e-05  7.7102767e-05  1.5950104e-05  0              430.77186      861.77547     -0.23174525     0              9.6736167      0              0              18.948611      18.973209      0.2            359.51596    
     10400   3.4114586e-05  9.4879673e-05  7.8585653e-05  1.629402e-05   0              434.8021       869.84426     -0.24005256     0              9.7509377      0              0              18.948421      18.973265      0.2            359.51342    
     10500   3.4214385e-05  9.6724228e-05  8.0082591e-05  1.6641637e-05  0              438.83365      877.91433     -0.24704273     0              9.8282242      0              0              18.948232      18.97332       0.2            359.51087    
     10600   3.4278911e-05  9.858671e-05   8.1594088e-05  1.6992622e-05  0              442.87057      885.994       -0.25285656     0              9.9055586      0              0              18.948042      18.973376      0.2            359.50833    
     10700   3.4371499e-05  0.00010046695  8.3119289e-05  1.7347663e-05  0              446.90776      894.07341     -0.25789708     0              9.9870026      0              0              18.947852      18.973431      0.2            359.50578    
     10800   3.44056e-05    0.00010236503  8.4658626e-05  1.7706407e-05  0              450.94843      902.15842     -0.26156346     0              10.071785      0              0              18.947663      18.973487      0.2            359.50323    
     10900   3.4540539e-05  0.00010428102  8.6211985e-05  1.806904e-05   0              454.99033      910.24414     -0.26348624     0              10.158312      0              0              18.947473      18.973542      0.2            359.50068    
     11000   3.4630371e-05  0.00010621481  8.777929e-05   1.8435523e-05  0              459.03363      918.33238     -0.26511664     0              10.240452      0              0              18.947283      18.973598      0.2            359.49814    
     11100   3.4835417e-05  0.00010816637  8.9360807e-05  1.8805561e-05  0              463.07477      926.41431     -0.26476154     0              10.31958       0              0              18.947094      18.973653      0.2            359.49559    
     11200   3.4925557e-05  0.00011013559  9.0955976e-05  1.9179613e-05  0              467.11309      934.48915     -0.26297368     0              10.39345       0              0              18.946904      18.973709      0.2            359.49304    
     11300   3.5055441e-05  0.00011212263  9.2564793e-05  1.9557833e-05  0              471.15029      942.56111     -0.26053963     0              10.467458      0              0              18.946714      18.973764      0.2            359.49049    
     11400   3.5127855e-05  0.00011412748  9.4187439e-05  1.9940046e-05  0              475.18863      950.63391     -0.25665421     0              10.544306      0              0              18.946525      18.97382       0.2            359.48795    
     11500   3.5258478e-05  0.00011615014  9.5824047e-05  2.0326089e-05  0              479.22867      958.70911     -0.25178262     0              10.626832      0              0              18.946335      18.973876      0.2            359.48541    
     11600   3.5239985e-05  0.00011819065  9.7474671e-05  2.0715981e-05  0              483.27005      966.7859      -0.24580251     0              10.709546      0              0              18.946145      18.973932      0.2            359.48287    
     11700   3.5291304e-05  0.00012024914  9.9139122e-05  2.111002e-05   0              487.3101       974.85919     -0.2389931      0              10.793241      0              0              18.945956      18.973987      0.2            359.48033    
     11800   3.538909e-05   0.00012232547  0.00010081763  2.150784e-05   0              491.34644      982.92405     -0.23116849     0              10.876489      0              0              18.945766      18.974043      0.2            359.47779    
     11900   3.5535482e-05  0.00012441959  0.00010251039  2.1909198e-05  0              495.38024      990.98159     -0.22110557     0              10.960049      0              0              18.945576      18.974099      0.2            359.47524    
     12000   3.5620528e-05  0.00012653156  0.00010421774  2.2313822e-05  0              499.41642      999.04356     -0.21072989     0              11.04586       0              0              18.945387      18.974155      0.2            359.4727     
     12100   3.5681527e-05  0.00012866138  0.00010593961  2.2721767e-05  0              503.45628      1007.1126     -0.20001743     0              11.129741      0              0              18.945197      18.97421       0.2            359.47015    
     12200   3.5805352e-05  0.00013080892  0.00010767557  2.3133344e-05  0              507.49732      1015.1823     -0.18767826     0              11.209645      0              0              18.945007      18.974266      0.2            359.4676     
     12300   3.5996369e-05  0.00013297414  0.00010942546  2.3548687e-05  0              511.5388       1023.2516     -0.1739602      0              11.292003      0              0              18.944818      18.974321      0.2            359.46505    
     12400   3.6045548e-05  0.00013515723  0.00011118948  2.3967754e-05  0              515.58008      1031.3206     -0.16041262     0              11.373431      0              0              18.944628      18.974376      0.2            359.4625     
     12500   3.6153262e-05  0.00013735813  0.00011296779  2.4390338e-05  0              519.62147      1039.3887     -0.14572893     0              11.458961      0              0              18.944438      18.974431      0.2            359.45994    
     12600   3.6266558e-05  0.00013957683  0.0001147605   2.4816327e-05  0              523.66647      1047.4633     -0.13041215     0              11.548333      0              0              18.944249      18.974486      0.2            359.45739    
     12700   3.6337642e-05  0.00014181332  0.00011656729  2.5246029e-05  0              527.71297      1055.5408     -0.11485444     0              11.639205      0              0              18.944059      18.974542      0.2            359.45483    
     12800   3.6432109e-05  0.00014406768  0.00011838821  2.5679467e-05  0              531.75759      1063.6128     -0.097672957    0              11.7337        0              0              18.943869      18.974597      0.2            359.45228    
     12900   3.6671089e-05  0.00014633966  0.00012022197  2.6117694e-05  0              535.79619      1071.6738     -0.081376088    0              11.830587      0              0              18.94368       18.974652      0.2            359.44972    
     13000   3.674918e-05   0.00014862932  0.00012206909  2.6560235e-05  0              539.83256      1079.7295     -0.064372619    0              11.930383      0              0              18.94349       18.974707      0.2            359.44717    
     13100   3.6812098e-05  0.00015093686  0.0001239309   2.7005959e-05  0              543.87122      1087.79       -0.047593754    0              12.032094      0              0              18.9433        18.974762      0.2            359.44461    
     13200   3.6816635e-05  0.0001532622   0.00012580692  2.7455277e-05  0              547.91253      1095.8556     -0.030493199    0              12.138797      0              0              18.943111      18.974817      0.2            359.44206    
     13300   3.6939172e-05  0.00015560541  0.00012769706  2.7908343e-05  0              551.95283      1103.9192     -0.013541661    0              12.253041      0              0              18.942921      18.974872      0.2            359.43951    
     13400   3.6960636e-05  0.0001579664   0.00012960095  2.8365455e-05  0              555.98898      1111.9745      0.0034490598   0              12.364414      0              0              18.942731      18.974928      0.2            359.43695    
     13500   3.7008315e-05  0.00016034529  0.00013151906  2.8826222e-05  0              560.0249       1120.0287      0.021085075    0              12.46998       0              0              18.942542      18.974983      0.2            359.4344     
     13600   3.7050475e-05  0.00016274218  0.00013345131  2.9290861e-05  0              564.06178      1128.0848      0.03876114     0              12.570835      0              0              18.942352      18.975038      0.2            359.43185    
     13700   3.7156233e-05  0.00016515681  0.00013539723  2.9759585e-05  0              568.09606      1136.1363      0.055848247    0              12.66655       0              0              18.942162      18.975094      0.2            359.4293     
     13800   3.7355928e-05  0.00016758912  0.00013735702  3.0232103e-05  0              572.1243       1144.1758      0.072840274    0              12.761182      0              0              18.941972      18.975149      0.2            359.42675    
     13900   3.7521284e-05  0.00017003913  0.00013933039  3.070874e-05   0              576.15095      1152.2126      0.089260922    0              12.851097      0              0              18.941783      18.975204      0.2            359.4242     
     14000   3.7458759e-05  0.00017250706  0.00014131725  3.1189807e-05  0              580.17703      1160.2481      0.10596949     0              12.938862      0              0              18.941593      18.97526       0.2            359.42165    
     14100   3.7496594e-05  0.00017499292  0.00014331817  3.1674745e-05  0              584.20641      1168.2905      0.12228157     0              13.02503       0              0              18.941403      18.975316      0.2            359.41911    
     14200   3.7565518e-05  0.00017749658  0.00014533351  3.2163065e-05  0              588.23364      1176.3297      0.13760435     0              13.110935      0              0              18.941214      18.975371      0.2            359.41657    
     14300   3.7605445e-05  0.0001800181   0.00014736367  3.2654427e-05  0              592.26042      1184.3684      0.15243056     0              13.201411      0              0              18.941024      18.975427      0.2            359.41402    
     14400   3.7724899e-05  0.0001825574   0.00014940838  3.3149019e-05  0              596.2872       1192.4075      0.16686391     0              13.294829      0              0              18.940834      18.975482      0.2            359.41147    
     14500   3.7853465e-05  0.00018511441  0.00015146723  3.3647185e-05  0              600.31379      1200.4478      0.17974739     0              13.388375      0              0              18.940645      18.975538      0.2            359.40892    
     14600   3.7928725e-05  0.00018768918  0.00015354026  3.4148919e-05  0              604.33972      1208.487       0.19239881     0              13.482626      0              0              18.940455      18.975593      0.2            359.40637    
     14700   3.7909172e-05  0.00019028187  0.00015562754  3.4654332e-05  0              608.36667      1216.5296      0.20375566     0              13.58005       0              0              18.940265      18.975648      0.2            359.40381    
     14800   3.795893e-05   0.00019289254  0.00015772916  3.5163384e-05  0              612.39259      1224.57        0.21513156     0              13.677083      0              0              18.940076      18.975703      0.2            359.40125    
     14900   3.8038787e-05  0.00019552094  0.0001598444   3.5676545e-05  0              616.41236      1232.5994      0.22528257     0              13.776629      0              0              18.939886      18.975758      0.2            359.39869    
     15000   3.8191632e-05  0.00019816709  0.00016197324  3.6193851e-05  0              620.42988      1240.6255      0.23425265     0              13.871351      0              0              18.939696      18.975813      0.2            359.39614    
     15100   3.8250675e-05  0.00020083108  0.00016411565  3.6715433e-05  0              624.446        1248.6504      0.24163512     0              13.966665      0              0              18.939507      18.975868      0.2            359.39359    
     15200   3.8281229e-05  0.0002035129   0.00016627168  3.7241227e-05  0              628.46144      1256.6742      0.24869216     0              14.059393      0              0              18.939317      18.975924      0.2            359.39103    
     15300   3.8170167e-05  0.00020621276  0.0001684422   3.7770563e-05  0              632.47874      1264.7029      0.25461436     0              14.148844      0              0              18.939127      18.975979      0.2            359.38848    
     15400   3.8319724e-05  0.00020893048  0.00017062637  3.8304104e-05  0              636.49703      1272.7352      0.2588304      0              14.235743      0              0              18.938938      18.976034      0.2            359.38593    
     15500   3.8334159e-05  0.00021166609  0.00017282461  3.8841473e-05  0              640.51619      1280.7706      0.26182004     0              14.321675      0              0              18.938748      18.97609       0.2            359.38338    
     15600   3.8513869e-05  0.00021441937  0.00017503615  3.9383218e-05  0              644.53153      1288.7988      0.26422652     0              14.407573      0              0              18.938558      18.976145      0.2            359.38083    
     15700   3.8695478e-05  0.0002171903   0.00017726074  3.9929557e-05  0              648.54445      1296.8233      0.26554851     0              14.50035       0              0              18.938369      18.9762        0.2            359.37828    
     15800   3.8569879e-05  0.00021997914  0.00017949943  4.0479708e-05  0              652.55832      1304.8514      0.26519977     0              14.593975      0              0              18.938179      18.976256      0.2            359.37573    
     15900   3.8557904e-05  0.000222786    0.00018175272  4.1033278e-05  0              656.57643      1312.8889      0.26395196     0              14.688218      0              0              18.937989      18.976312      0.2            359.37318    
     16000   3.8683847e-05  0.0002256107   0.00018401988  4.159082e-05   0              660.59693      1320.9326      0.26130868     0              14.78396       0              0              18.9378        18.976367      0.2            359.37064    
     16100   3.8857817e-05  0.00022845313  0.00018630065  4.2152478e-05  0              664.61635      1328.9753      0.25738521     0              14.880206      0              0              18.93761       18.976423      0.2            359.3681     
     16200   3.9006416e-05  0.00023131323  0.00018859523  4.2717998e-05  0              668.63578      1337.019       0.25259591     0              14.976466      0              0              18.93742       18.976479      0.2            359.36555    
     16300   3.9039223e-05  0.00023419114  0.00019090398  4.3287156e-05  0              672.65358      1345.0603      0.24689681     0              15.068252      0              0              18.937231      18.976535      0.2            359.36301    
     16400   3.9093175e-05  0.00023708691  0.00019322744  4.3859471e-05  0              676.67135      1353.103       0.23969757     0              15.153887      0              0              18.937041      18.97659       0.2            359.36046    
     16500   3.9031394e-05  0.00024000062  0.00019556535  4.4435271e-05  0              680.68834      1361.1448      0.23189579     0              15.237786      0              0              18.936851      18.976646      0.2            359.35792    
     16600   3.8969595e-05  0.0002429323   0.00019791803  4.5014277e-05  0              684.70422      1369.185       0.22343873     0              15.31875       0              0              18.936662      18.976701      0.2            359.35537    
     16700   3.9035461e-05  0.00024588186  0.00020028494  4.5596919e-05  0              688.71806      1377.2226      0.21352472     0              15.39983       0              0              18.936472      18.976757      0.2            359.35283    
     16800   3.9211093e-05  0.00024884928  0.00020266564  4.6183643e-05  0              692.72915      1385.2568      0.20152953     0              15.478262      0              0              18.936282      18.976813      0.2            359.35028    
     16900   3.9316323e-05  0.00025183434  0.00020505946  4.6774875e-05  0              696.73751      1393.2856      0.18944417     0              15.556029      0              0              18.936092      18.976869      0.2            359.34774    
     17000   3.9397354e-05  0.00025483711  0.00020746721  4.7369902e-05  0              700.74296      1401.3091      0.17680704     0              15.633398      0              0              18.935903      18.976924      0.2            359.34519    
     17100   3.9556693e-05  0.0002578576   0.00020988872  4.7968871e-05  0              704.74583      1409.3286      0.163098       0              15.711114      0              0              18.935713      18.97698       0.2            359.34265    
     17200   3.9619432e-05  0.00026089578  0.00021232455  4.8571225e-05  0              708.74541      1417.3413      0.14949119     0              15.793004      0              0              18.935523      18.977036      0.2            359.34011    
     17300   3.9685826e-05  0.00026395189  0.00021477428  4.9177607e-05  0              712.74462      1425.354       0.13520947     0              15.877711      0              0              18.935334      18.977091      0.2            359.33756    
     17400   3.9811153e-05  0.00026702571  0.00021723753  4.9788183e-05  0              716.74328      1433.3669      0.11967567     0              15.960442      0              0              18.935144      18.977147      0.2            359.33502    
     17500   3.9873039e-05  0.00027011722  0.00021971456  5.0402666e-05  0              720.73999      1441.376       0.10393385     0              16.043244      0              0              18.934954      18.977203      0.2            359.33247    
     17600   4.0005405e-05  0.00027322646  0.00022220556  5.1020899e-05  0              724.73496      1449.3822      0.087717972    0              16.127529      0              0              18.934765      18.977258      0.2            359.32992    
     17700   4.0009775e-05  0.0002763536   0.00022471064  5.1642958e-05  0              728.72931      1457.3873      0.071335642    0              16.213867      0              0              18.934575      18.977314      0.2            359.32738    
     17800   4.0177508e-05  0.00027949854  0.00022722944  5.2269102e-05  0              732.72376      1465.3928      0.054674674    0              16.301189      0              0              18.934385      18.97737       0.2            359.32483    
     17900   4.0189762e-05  0.00028266118  0.00022976167  5.2899512e-05  0              736.71621      1473.3949      0.03748581     0              16.389329      0              0              18.934196      18.977426      0.2            359.32229    
     18000   4.0251088e-05  0.00028584177  0.00023230776  5.3534003e-05  0              740.70743      1481.3946      0.020276461    0              16.477229      0              0              18.934006      18.977482      0.2            359.31975    
     18100   4.036743e-05   0.00028903999  0.0002348673   5.4172694e-05  0              744.69608      1489.3894      0.0028037377   0              16.566186      0              0              18.933816      18.977537      0.2            359.31721    
     18200   4.0444495e-05  0.00029225605  0.00023744126  5.4814787e-05  0              748.68576      1497.3857     -0.014177551    0              16.658768      0              0              18.933627      18.977593      0.2            359.31466    
     18300   4.0442275e-05  0.00029548992  0.00024002904  5.5460886e-05  0              752.67835      1505.388      -0.03135289     0              16.74616       0              0              18.933437      18.977649      0.2            359.31212    
     18400   4.0586582e-05  0.00029874164  0.0002426303   5.6111336e-05  0              756.66743      1513.3831     -0.04825608     0              16.827925      0              0              18.933247      18.977704      0.2            359.30957    
     18500   4.0782067e-05  0.00030201087  0.00024524419  5.6766683e-05  0              760.65096      1521.367      -0.06507482     0              16.90811       0              0              18.933058      18.97776       0.2            359.30702    
     18600   4.0785643e-05  0.00030529795  0.00024787189  5.7426061e-05  0              764.63418      1529.3501     -0.081714753    0              16.994428      0              0              18.932868      18.977816      0.2            359.30448    
     18700   4.0899702e-05  0.00030860284  0.00025051319  5.8089644e-05  0              768.61801      1537.3343     -0.098237496    0              17.077882      0              0              18.932678      18.977871      0.2            359.30193    
     18800   4.0958565e-05  0.00031192553  0.00025316785  5.8757685e-05  0              772.60109      1545.3169     -0.11473301     0              17.159954      0              0              18.932489      18.977927      0.2            359.29939    
     18900   4.0817721e-05  0.00031526615  0.00025583659  5.942956e-05   0              776.58192      1553.2942     -0.13038311     0              17.244231      0              0              18.932299      18.977983      0.2            359.29685    
     19000   4.0878842e-05  0.00031862477  0.00025851961  6.0105161e-05  0              780.56203      1561.2687     -0.144614       0              17.327477      0              0              18.932109      18.978039      0.2            359.2943     
     19100   4.0786294e-05  0.00032200134  0.0002612166   6.0784745e-05  0              784.54392      1569.2467     -0.1588806      0              17.41144       0              0              18.93192       18.978094      0.2            359.29175    
     19200   4.1013432e-05  0.00032539575  0.00026392801  6.1467738e-05  0              788.52775      1577.2278     -0.17227497     0              17.494916      0              0              18.93173       18.97815       0.2            359.28921    
     19300   4.1131156e-05  0.00032880775  0.00026665296  6.2154784e-05  0              792.51184      1585.2086     -0.18493129     0              17.580004      0              0              18.93154       18.978206      0.2            359.28666    
     19400   4.117426e-05   0.00033223751  0.00026939226  6.2845252e-05  0              796.49954      1593.1956     -0.19647424     0              17.67135       0              0              18.931351      18.978261      0.2            359.28411    
     19500   4.1080193e-05  0.00033568518  0.00027214583  6.3539351e-05  0              800.49164      1601.1906     -0.20734024     0              17.768371      0              0              18.931161      18.978316      0.2            359.28156    
     19600   4.1193663e-05  0.00033915092  0.00027491445  6.4236475e-05  0              804.48557      1609.1892     -0.21810929     0              17.86303       0              0              18.930971      18.978372      0.2            359.27901    
     19700   4.1126553e-05  0.00034263441  0.00027769697  6.4937442e-05  0              808.47922      1617.1863     -0.22783489     0              17.953301      0              0              18.930782      18.978427      0.2            359.27646    
     19800   4.1240275e-05  0.0003461359   0.00028049391  6.5641994e-05  0              812.47285      1625.1823     -0.23660024     0              18.039249      0              0              18.930592      18.978483      0.2            359.27391    
     19900   4.1276744e-05  0.00034965509  0.00028330382  6.6351267e-05  0              816.46859      1633.1818     -0.24461218     0              18.12022       0              0              18.930402      18.978538      0.2            359.27136    
     20000   4.1362716e-05  0.00035319205  0.00028612679  6.7065261e-05  0              820.46323      1641.1774     -0.25093367     0              18.201775      0              0              18.930213      18.978594      0.2            359.26881    
     20100   4.1380935e-05  0.00035674698  0.00028896427  6.7782702e-05  0              824.46299      1649.182      -0.25607394     0              18.286121      0              0              18.930023      18.978649      0.2            359.26627    
     20200   4.1591124e-05  0.00036031957  0.00029181462  6.8504948e-05  0              828.46084      1657.1821     -0.26044642     0              18.37348       0              0              18.929833      18.978705      0.2            359.26372    
     20300   4.1638561e-05  0.00036390983  0.00029467883  6.9230996e-05  0              832.4568       1665.1775     -0.26384924     0              18.461797      0              0              18.929643      18.978761      0.2            359.26118    
     20400   4.1624305e-05  0.00036751731  0.00029755741  6.9959901e-05  0              836.45508      1673.1762     -0.26601382     0              18.550673      0              0              18.929454      18.978817      0.2            359.25863    
     20500   4.155157e-05   0.00037114146  0.00030045088  7.0690578e-05  0              840.45592      1681.1791     -0.26722131     0              18.642853      0              0              18.929264      18.978872      0.2            359.25608    
     20600   4.1587552e-05  0.0003747836   0.00030335833  7.1425273e-05  0              844.45555      1689.1779     -0.26683172     0              18.735999      0              0              18.929074      18.978928      0.2            359.25354    
     20700   4.1671278e-05  0.00037844356  0.0003062792   7.216436e-05   0              848.45166      1697.1693     -0.26600419     0              18.831272      0              0              18.928885      18.978983      0.2            359.25099    
     20800   4.162971e-05   0.0003821214   0.00030921398  7.2907417e-05  0              852.4475       1705.1587     -0.26371199     0              18.923438      0              0              18.928695      18.979039      0.2            359.24844    
     20900   4.1711445e-05  0.00038581707  0.00031216269  7.3654382e-05  0              856.44354      1713.1483     -0.26126696     0              19.013503      0              0              18.928505      18.979095      0.2            359.2459     
     21000   4.1807983e-05  0.00038953047  0.00031512551  7.4404962e-05  0              860.43823      1721.1337     -0.25726069     0              19.098642      0              0              18.928316      18.97915       0.2            359.24335    
     21100   4.1882912e-05  0.00039326159  0.00031810266  7.515893e-05   0              864.43334      1729.1189     -0.25224243     0              19.181091      0              0              18.928126      18.979206      0.2            359.2408     
     21200   4.1781704e-05  0.00039701063  0.00032109375  7.5916875e-05  0              868.43002      1737.1064     -0.2463316      0              19.261592      0              0              18.927936      18.979261      0.2            359.23825    
     21300   4.181881e-05   0.00040077766  0.00032409904  7.6678627e-05  0              872.42678      1745.0925     -0.23892298     0              19.347193      0              0              18.927747      18.979317      0.2            359.2357     
     21400   4.1831832e-05  0.00040456251  0.00032711766  7.7444848e-05  0              876.42191      1753.0743     -0.23047113     0              19.438793      0              0              18.927557      18.979372      0.2            359.23314    
     21500   4.1766982e-05  0.00040836544  0.00033015106  7.8214374e-05  0              880.41753      1761.0567     -0.22162807     0              19.530077      0              0              18.927367      18.979427      0.2            359.23059    
     21600   4.1711804e-05  0.00041218638  0.00033320004  7.8986336e-05  0              884.41559      1769.0426     -0.21144145     0              19.62073       0              0              18.927178      18.979483      0.2            359.22804    
     21700   4.1819141e-05  0.00041602521  0.00033626339  7.9761815e-05  0              888.41662      1777.0337     -0.20051141     0              19.711149      0              0              18.926988      18.979538      0.2            359.22548    
     21800   4.1989716e-05  0.00041988158  0.00033933968  8.0541904e-05  0              892.41538      1785.0194     -0.18863958     0              19.800862      0              0              18.926798      18.979593      0.2            359.22293    
     21900   4.2029341e-05  0.00042375574  0.00034242938  8.132636e-05   0              896.41684      1793.0101     -0.17641728     0              19.893107      0              0              18.926609      18.979648      0.2            359.22037    
     22000   4.2070129e-05  0.00042764771  0.00034553316  8.2114544e-05  0              900.4199       1801.0029     -0.16311925     0              19.981408      0              0              18.926419      18.979703      0.2            359.21781    
     22100   4.2137688e-05  0.00043155742  0.00034865111  8.2906313e-05  0              904.4254       1808.9997     -0.14892307     0              20.067921      0              0              18.926229      18.979758      0.2            359.21525    
     22200   4.2271112e-05  0.00043548487  0.00035178218  8.3702685e-05  0              908.42803      1816.9909     -0.13488008     0              20.156973      0              0              18.92604       18.979813      0.2            359.21269    
     22300   4.245771e-05   0.0004394299   0.00035492667  8.4503228e-05  0              912.43086      1824.9821     -0.1203684      0              20.246538      0              0              18.92585       18.979868      0.2            359.21013    
     22400   4.2312976e-05  0.0004433929   0.00035808569  8.5307202e-05  0              916.43556      1832.9763     -0.10518398     0              20.332194      0              0              18.92566       18.979923      0.2            359.20757    
     22500   4.2133923e-05  0.00044737398  0.00036125977  8.6114206e-05  0              920.44418      1840.9775     -0.089141652    0              20.410763      0              0              18.925471      18.979977      0.2            359.20501    
     22600   4.1967854e-05  0.00045137328  0.0003644488   8.6924485e-05  0              924.45832      1848.99       -0.073333808    0              20.487387      0              0              18.925281      18.980032      0.2            359.20244    
     22700   4.1981885e-05  0.00045539068  0.00036765355  8.7737128e-05  0              928.47453      1857.0057     -0.056611658    0              20.567528      0              0              18.925091      18.980087      0.2            359.19988    
     22800   4.2150584e-05  0.00045942573  0.00037087141  8.8554319e-05  0              932.48528      1865.0109     -0.040349638    0              20.641811      0              0              18.924902      18.980142      0.2            359.19731    
     22900   4.2323842e-05  0.00046347843  0.00037410308  8.9375352e-05  0              936.49137      1873.0069     -0.024161443    0              20.722402      0              0              18.924712      18.980196      0.2            359.19475    
     23000   4.2524309e-05  0.00046754875  0.00037734724  9.0201502e-05  0              940.49459      1880.996      -0.0068397298   0              20.803055      0              0              18.924522      18.980251      0.2            359.19218    
     23100   4.2649924e-05  0.00047163674  0.0003806042   9.1032539e-05  0              944.49212      1888.9745      0.0097728461   0              20.890769      0              0              18.924333      18.980306      0.2            359.18962    
     23200   4.2560381e-05  0.00047574253  0.00038387544  9.1867086e-05  0              948.48749      1896.9484      0.026549415    0              20.975468      0              0              18.924143      18.980361      0.2            359.18705    
     23300   4.2650956e-05  0.00047986632  0.00038716075  9.2705569e-05  0              952.48372      1904.9244      0.04302597     0              21.058522      0              0              18.923953      18.980415      0.2            359.18449    
     23400   4.2528346e-05  0.00048400801  0.00039046018  9.3547827e-05  0              956.48143      1912.9033      0.059581546    0              21.140888      0              0              18.923764      18.980471      0.2            359.18194    
     23500   4.2601936e-05  0.00048816771  0.00039377331  9.4394392e-05  0              960.47818      1920.88        0.076329011    0              21.223794      0              0              18.923574      18.980526      0.2            359.17938    
     23600   4.2549356e-05  0.00049234523  0.00039710016  9.5245079e-05  0              964.47717      1928.8614      0.092885954    0              21.309278      0              0              18.923384      18.980581      0.2            359.17683    
     23700   4.2680621e-05  0.00049654054  0.00040044074  9.6099807e-05  0              968.47594      1936.8423      0.10954253     0              21.399108      0              0              18.923194      18.980636      0.2            359.17427    
     23800   4.2739144e-05  0.00050075341  0.00040379415  9.6959266e-05  0              972.4706       1944.8166      0.12462334     0              21.489186      0              0              18.923005      18.980692      0.2            359.17172    
     23900   4.2924554e-05  0.0005049841   0.00040716183  9.7822272e-05  0              976.46518      1952.7908      0.13957936     0              21.580519      0              0              18.922815      18.980747      0.2            359.16916    
     24000   4.309103e-05   0.0005092324   0.00041054329  9.8689115e-05  0              980.45917      1960.7641      0.15422147     0              21.677039      0              0              18.922625      18.980802      0.2            359.16661    
     24100   4.3280442e-05  0.00051349828  0.00041393895  9.9559336e-05  0              984.45248      1968.7373      0.1676437      0              21.772842      0              0              18.922436      18.980857      0.2            359.16405    
     24200   4.3362357e-05  0.00051778184  0.00041734816  0.00010043368  0              988.44393      1976.7071      0.18077292     0              21.865183      0              0              18.922246      18.980913      0.2            359.1615     
     24300   4.3407071e-05  0.00052208321  0.00042077124  0.00010131196  0              992.43558      1984.6776      0.19360094     0              21.955573      0              0              18.922056      18.980968      0.2            359.15894    
     24400   4.3406319e-05  0.0005264024   0.00042420797  0.00010219443  0              996.42801      1992.6507      0.20535949     0              22.04922       0              0              18.921867      18.981023      0.2            359.15639    
     24500   4.3554711e-05  0.0005307393   0.00042765781  0.00010308149  0              1000.4188      2000.6213      0.21630123     0              22.137544      0              0              18.921677      18.981079      0.2            359.15384    
     24600   4.3436048e-05  0.00053509416  0.00043112235  0.00010397182  0              1004.4099      2008.5938      0.22600961     0              22.227432      0              0              18.921487      18.981134      0.2            359.15128    
     24700   4.3560921e-05  0.00053946685  0.0004346009   0.00010486595  0              1008.3991      2016.5633      0.23482646     0              22.318786      0              0              18.921298      18.981189      0.2            359.14873    
     24800   4.350586e-05   0.00054385739  0.00043809335  0.00010576404  0              1012.3882      2024.5334      0.24299913     0              22.410713      0              0              18.921108      18.981244      0.2            359.14618    
     24900   4.3448855e-05  0.00054826592  0.00044160026  0.00010666565  0              1016.3762      2032.5021      0.25031007     0              22.502965      0              0              18.920918      18.9813        0.2            359.14363    
     25000   4.3267738e-05  0.00055269251  0.00044512152  0.00010757099  0              1020.3633      2040.4698      0.25679111     0              22.590479      0              0              18.920729      18.981355      0.2            359.14108    
     25100   4.3300692e-05  0.0005571371   0.00044865638  0.00010848072  0              1024.3508      2048.4396      0.26198501     0              22.678272      0              0              18.920539      18.981411      0.2            359.13853    
     25200   4.340647e-05   0.00056159963  0.00045220579  0.00010939383  0              1028.3388      2056.4115      0.26606516     0              22.770913      0              0              18.920349      18.981466      0.2            359.13598    
     25300   4.3495058e-05  0.00056607985  0.00045576897  0.00011031088  0              1032.3283      2064.3867      0.26989282     0              22.867976      0              0              18.92016       18.981522      0.2            359.13343    
     25400   4.3544883e-05  0.00057057781  0.0004593446   0.00011123321  0              1036.3128      2072.3535      0.27204719     0              22.96449       0              0              18.91997       18.981578      0.2            359.13088    
     25500   4.3436485e-05  0.00057509375  0.00046293412  0.00011215963  0              1040.2988      2080.325       0.27263756     0              23.059785      0              0              18.91978       18.981633      0.2            359.12833    
     25600   4.360229e-05   0.00057962737  0.00046653682  0.00011309056  0              1044.2835      2088.2941      0.27286174     0              23.155195      0              0              18.919591      18.981689      0.2            359.12579    
     25700   4.3597101e-05  0.00058417892  0.00047015358  0.00011402533  0              1048.2715      2096.2709      0.27208802     0              23.249501      0              0              18.919401      18.981745      0.2            359.12324    
     25800   4.3594507e-05  0.00058874829  0.00047378493  0.00011496335  0              1052.2595      2104.2486      0.27026385     0              23.340361      0              0              18.919211      18.9818        0.2            359.12069    
     25900   4.3744527e-05  0.00059333551  0.00047743154  0.00011590398  0              1056.2513      2112.2353      0.26724807     0              23.424116      0              0              18.919022      18.981856      0.2            359.11814    
     26000   4.3843153e-05  0.00059794041  0.00048109202  0.00011684839  0              1060.2413      2120.2194      0.26309552     0              23.511977      0              0              18.918832      18.981911      0.2            359.11559    
     26100   4.3922762e-05  0.000602563    0.00048476707  0.00011779592  0              1064.2315      2128.2052      0.25772233     0              23.60013       0              0              18.918642      18.981967      0.2            359.11304    
     26200   4.3894307e-05  0.00060720348  0.0004884572   0.00011874629  0              1068.2233      2136.1947      0.25193551     0              23.686263      0              0              18.918453      18.982022      0.2            359.11048    
     26300   4.380987e-05   0.0006118619   0.00049216171  0.00011970019  0              1072.2149      2144.1853      0.2445719      0              23.770655      0              0              18.918263      18.982077      0.2            359.10793    
     26400   4.3799293e-05  0.00061653818  0.00049588145  0.00012065673  0              1076.2046      2152.1718      0.23731349     0              23.853905      0              0              18.918073      18.982132      0.2            359.10537    
     26500   4.3834405e-05  0.00062123233  0.00049961502  0.00012161731  0              1080.1948      2160.1613      0.22821978     0              23.93677       0              0              18.917884      18.982187      0.2            359.10281    
     26600   4.3832973e-05  0.00062594439  0.0005033627   0.00012258169  0              1084.1851      2168.1516      0.21871659     0              24.017296      0              0              18.917694      18.982242      0.2            359.10025    
     26700   4.3983691e-05  0.00063067415  0.00050712353  0.00012355062  0              1088.1709      2176.1338      0.20801797     0              24.096141      0              0              18.917504      18.982297      0.2            359.09769    
     26800   4.404749e-05   0.00063542167  0.00051089752  0.00012452415  0              1092.1533      2184.11        0.19652743     0              24.180485      0              0              18.917314      18.982353      0.2            359.09513    
     26900   4.4055718e-05  0.00064018694  0.00051468421  0.00012550273  0              1096.1317      2192.0795      0.18402236     0              24.268999      0              0              18.917125      18.982408      0.2            359.09258    
     27000   4.4290737e-05  0.00064496998  0.0005184846   0.00012648538  0              1100.1093      2200.047       0.17151563     0              24.354965      0              0              18.916935      18.982463      0.2            359.09003    
     27100   4.4419808e-05  0.00064977054  0.00052229718  0.00012747336  0              1104.0813      2208.0046      0.1580947      0              24.442185      0              0              18.916745      18.982519      0.2            359.08747    
     27200   4.4475367e-05  0.0006545888   0.00052612204  0.00012846676  0              1108.0515      2215.9591      0.14389089     0              24.524829      0              0              18.916556      18.982574      0.2            359.08493    
     27300   4.4280925e-05  0.00065942513  0.00052996162  0.00012946351  0              1112.024       2223.918       0.12994989     0              24.612029      0              0              18.916366      18.98263       0.2            359.08238    
     27400   4.4185704e-05  0.00066427949  0.00053381485  0.00013046464  0              1115.9937      2231.8733      0.11407711     0              24.702521      0              0              18.916176      18.982686      0.2            359.07983    
     27500   4.4120475e-05  0.00066915187  0.00053768232  0.00013146955  0              1119.9663      2239.833       0.099558509    0              24.797203      0              0              18.915987      18.982741      0.2            359.07728    
     27600   4.4407195e-05  0.00067404192  0.00054156257  0.00013247935  0              1123.9338      2247.7833      0.084234912    0              24.890376      0              0              18.915797      18.982797      0.2            359.07473    
     27700   4.42954e-05    0.00067894986  0.00054545724  0.00013349262  0              1127.9017      2255.7354      0.068133365    0              24.981392      0              0              18.915607      18.982853      0.2            359.07219    
     27800   4.4318554e-05  0.00068387555  0.00054936606  0.00013450949  0              1131.8692      2263.687       0.051534881    0              25.066838      0              0              18.915418      18.982908      0.2            359.06964    
     27900   4.4284202e-05  0.00068881917  0.00055329003  0.00013552914  0              1135.8398      2271.6448      0.034862408    0              25.15066       0              0              18.915228      18.982964      0.2            359.0671     
     28000   4.4300705e-05  0.00069378071  0.00055722853  0.00013655218  0              1139.8102      2279.6023      0.018086581    0              25.234438      0              0              18.915038      18.98302       0.2            359.06455    
     28100   4.4319182e-05  0.00069876008  0.00056118017  0.00013757991  0              1143.7792      2287.5569      0.0015366608   0              25.31708       0              0              18.914849      18.983076      0.2            359.06201    
     28200   4.4525014e-05  0.00070375722  0.00056514558  0.00013861163  0              1147.7456      2295.5064     -0.015229217    0              25.403959      0              0              18.914659      18.983132      0.2            359.05947    
     28300   4.4572345e-05  0.00070877206  0.00056912575  0.00013964631  0              1151.7073      2303.4464     -0.031892656    0              25.489534      0              0              18.914469      18.983188      0.2            359.05693    
     28400   4.4489339e-05  0.00071380484  0.00057312115  0.00014068369  0              1155.6699      2311.3882     -0.048376759    0              25.572587      0              0              18.91428       18.983244      0.2            359.05439    
     28500   4.4470452e-05  0.00071885556  0.00057713091  0.00014172466  0              1159.6366      2319.338      -0.064746821    0              25.657486      0              0              18.91409       18.9833        0.2            359.05185    
     28600   4.4577013e-05  0.00072392413  0.0005811538   0.00014277033  0              1163.6052      2327.2912     -0.08077805     0              25.746508      0              0              18.9139        18.983356      0.2            359.04931    
     28700   4.4561353e-05  0.00072901043  0.00058518964  0.00014382078  0              1167.5726      2335.2419     -0.096699205    0              25.836658      0              0              18.913711      18.983412      0.2            359.04677    
[...]
    193000   5.4599267e-05  0.03300832     0.025729007    0.0072793132   0              7595.7163      15192.045     -0.61260143     0              175.81717      0              0              18.602072      19.074294      0.2            354.82139    
    193100   5.4592304e-05  0.033042427    0.025755444    0.0072869831   0              7599.58        15199.768     -0.60747844     0              175.92254      0              0              18.601882      19.074349      0.2            354.8188     
    193200   5.4671966e-05  0.033076551    0.025781898    0.0072946532   0              7603.4436      15207.49      -0.60275883     0              176.03702      0              0              18.601692      19.074404      0.2            354.81621    
    193300   5.483129e-05   0.033110693    0.025808369    0.0073023233   0              7607.3047      15215.207     -0.59737007     0              176.15484      0              0              18.601503      19.074459      0.2            354.81361    
    193400   5.4727964e-05  0.033144852    0.025834857    0.0073099955   0              7611.1683      15222.93      -0.59302403     0              176.27187      0              0              18.601313      19.074515      0.2            354.81102    
    193500   5.4610441e-05  0.033179029    0.02586136     0.0073176694   0              7615.0371      15230.662     -0.58781406     0              176.38799      0              0              18.601123      19.07457       0.2            354.80842    
    193600   5.4322006e-05  0.033213224    0.025887882    0.0073253412   0              7618.9108      15238.404     -0.58278293     0              176.5043       0              0              18.600934      19.074625      0.2            354.80583    
    193700   5.4115771e-05  0.033247436    0.025914422    0.0073330142   0              7622.7867      15246.151     -0.57725768     0              176.62281      0              0              18.600744      19.07468       0.2            354.80323    
    193800   5.4061209e-05  0.033281667    0.025940972    0.0073406946   0              7626.6641      15253.9       -0.57169838     0              176.73899      0              0              18.600554      19.074734      0.2            354.80064    
    193900   5.393402e-05   0.033315915    0.025967537    0.0073483783   0              7630.5437      15261.653     -0.56547512     0              176.85433      0              0              18.600365      19.074789      0.2            354.79804    
    194000   5.3939766e-05  0.033350181    0.02599411     0.007356071    0              7634.4244      15269.409     -0.56016153     0              176.96753      0              0              18.600175      19.074844      0.2            354.79544    
    194100   5.3935085e-05  0.033384464    0.026020699    0.007363765    0              7638.3058      15277.165     -0.55368445     0              177.07787      0              0              18.599985      19.074899      0.2            354.79284    
    194200   5.3853738e-05  0.033418765    0.026047306    0.0073714591   0              7642.1886      15284.924     -0.54714999     0              177.18832      0              0              18.599796      19.074954      0.2            354.79024    
    194300   5.3780092e-05  0.033453084    0.026073931    0.0073791525   0              7646.0721      15292.685     -0.54118328     0              177.29856      0              0              18.599606      19.075009      0.2            354.78765    
    194400   5.3766041e-05  0.03348742     0.026100577    0.007386843    0              7649.9598      15300.454     -0.53416216     0              177.40443      0              0              18.599416      19.075064      0.2            354.78505    
    194500   5.3852213e-05  0.033521774    0.026127239    0.0073945352   0              7653.8445      15308.216     -0.52739156     0              177.5051       0              0              18.599227      19.075119      0.2            354.78246    
    194600   5.4033693e-05  0.033556145    0.026153902    0.0074022432   0              7657.7236      15315.968     -0.52091994     0              177.60251      0              0              18.599037      19.075174      0.2            354.77986    
    194700   5.4290881e-05  0.033590533    0.026180571    0.007409962    0              7661.5976      15323.709     -0.51398458     0              177.69566      0              0              18.598847      19.075229      0.2            354.77726    
    194800   5.4514802e-05  0.033624938    0.026207247    0.007417691    0              7665.4666      15331.44      -0.50680184     0              177.78212      0              0              18.598658      19.075283      0.2            354.77466    
    194900   5.4329595e-05  0.033659361    0.026233939    0.0074254218   0              7669.3326      15339.165     -0.49980849     0              177.86653      0              0              18.598468      19.075338      0.2            354.77206    
    195000   5.4333886e-05  0.033693802    0.026260651    0.007433151    0              7673.1978      15346.888     -0.49238759     0              177.94795      0              0              18.598278      19.075393      0.2            354.76946    
    195100   5.441975e-05   0.03372826     0.026287359    0.0074409008   0              7677.0572      15354.6       -0.48518547     0              178.03094      0              0              18.598089      19.075447      0.2            354.76686    
    195200   5.4471075e-05  0.033762735    0.026314077    0.0074486585   0              7680.9145      15362.307     -0.47797787     0              178.11431      0              0              18.597899      19.075502      0.2            354.76426    
    195300   5.4565993e-05  0.033797228    0.026340801    0.0074564272   0              7684.7689      15370.008     -0.47011929     0              178.19579      0              0              18.597709      19.075557      0.2            354.76167    
    195400   5.4771234e-05  0.033831739    0.026367532    0.007464206    0              7688.62        15377.702     -0.46238906     0              178.28049      0              0              18.59752       19.075612      0.2            354.75907    
    195500   5.4639774e-05  0.033866266    0.026394278    0.007471988    0              7692.4707      15385.397     -0.45513861     0              178.36758      0              0              18.59733       19.075667      0.2            354.75648    
    195600   5.471276e-05   0.033900811    0.026421046    0.0074797655   0              7696.3219      15393.091     -0.44720552     0              178.45537      0              0              18.59714       19.075722      0.2            354.75388    
    195700   5.4760941e-05  0.033935374    0.026447836    0.007487538    0              7700.1763      15400.791     -0.43882447     0              178.54024      0              0              18.596951      19.075777      0.2            354.75128    
    195800   5.4818386e-05  0.033969954    0.026474635    0.0074953187   0              7704.0308      15408.493     -0.43080811     0              178.62355      0              0              18.596761      19.075832      0.2            354.74868    
    195900   5.4856275e-05  0.034004552    0.026501447    0.007503105    0              7707.885       15416.193     -0.42254878     0              178.70791      0              0              18.596571      19.075886      0.2            354.74608    
    196000   5.4739164e-05  0.034039167    0.026528284    0.0075108824   0              7711.7408      15423.895     -0.41390188     0              178.78869      0              0              18.596381      19.075941      0.2            354.74348    
    196100   5.4719994e-05  0.0340738      0.026555139    0.0075186608   0              7715.6014      15431.608     -0.40530998     0              178.8671       0              0              18.596192      19.075996      0.2            354.74088    
    196200   5.459262e-05   0.03410845     0.026582006    0.0075264441   0              7719.4638      15439.324     -0.39644857     0              178.94404      0              0              18.596002      19.076051      0.2            354.73828    
    196300   5.458348e-05   0.034143119    0.026608897    0.0075342219   0              7723.3294      15447.046     -0.38696195     0              179.01818      0              0              18.595812      19.076105      0.2            354.73568    
    196400   5.4596891e-05  0.034177804    0.026635797    0.0075420074   0              7727.1964      15454.77      -0.3772316      0              179.09389      0              0              18.595623      19.07616       0.2            354.73308    
    196500   5.4661852e-05  0.034212508    0.026662706    0.0075498013   0              7731.0664      15462.501     -0.3678238      0              179.17315      0              0              18.595433      19.076215      0.2            354.73048    
    196600   5.4719325e-05  0.034247228    0.02668963     0.0075575983   0              7734.9373      15470.233     -0.35806914     0              179.2566       0              0              18.595243      19.07627       0.2            354.72788    
    196700   5.4645596e-05  0.034281967    0.026716566    0.0075654008   0              7738.8094      15477.968     -0.34907157     0              179.34701      0              0              18.595054      19.076325      0.2            354.72528    
    196800   5.4844912e-05  0.034316722    0.026743515    0.0075732069   0              7742.6802      15485.7       -0.33909097     0              179.43837      0              0              18.594864      19.076379      0.2            354.72268    
    196900   5.4725234e-05  0.034351495    0.026770474    0.0075810212   0              7746.5493      15493.428     -0.32941555     0              179.53151      0              0              18.594674      19.076434      0.2            354.72008    
    197000   5.4628193e-05  0.034386286    0.026797446    0.0075888399   0              7750.4207      15501.161     -0.31958523     0              179.62911      0              0              18.594485      19.076489      0.2            354.71749    
    197100   5.4672561e-05  0.034421095    0.026824424    0.0075966703   0              7754.2926      15508.895     -0.30977805     0              179.72758      0              0              18.594295      19.076544      0.2            354.71489    
    197200   5.4644662e-05  0.034455921    0.026851415    0.007604506    0              7758.1682      15516.636     -0.29923581     0              179.82493      0              0              18.594105      19.076599      0.2            354.71229    
    197300   5.462704e-05   0.034490764    0.026878417    0.0076123471   0              7762.044       15524.377     -0.28885788     0              179.91988      0              0              18.593916      19.076654      0.2            354.7097     
    197400   5.4681609e-05  0.034525625    0.026905428    0.0076201973   0              7765.9194      15532.117     -0.27826598     0              180.01541      0              0              18.593726      19.076709      0.2            354.7071     
    197500   5.4738554e-05  0.034560504    0.026932447    0.0076280571   0              7769.795       15539.858     -0.2678493      0              180.11307      0              0              18.593536      19.076764      0.2            354.70451    
    197600   5.4755966e-05  0.0345954      0.026959474    0.0076359259   0              7773.669       15547.595     -0.25676386     0              180.20883      0              0              18.593347      19.076819      0.2            354.70191    
    197700   5.4695358e-05  0.034630313    0.026986512    0.0076438013   0              7777.5414      15555.329     -0.24585407     0              180.30439      0              0              18.593157      19.076874      0.2            354.69931    
    197800   5.4745707e-05  0.034665244    0.027013564    0.0076516802   0              7781.4133      15563.061     -0.23465568     0              180.40484      0              0              18.592967      19.076929      0.2            354.69672    
    197900   5.4958659e-05  0.034700192    0.027040614    0.0076595781   0              7785.2801      15570.785     -0.22439482     0              180.50423      0              0              18.592778      19.076984      0.2            354.69413    
    198000   5.5109572e-05  0.034735158    0.027067661    0.0076674962   0              7789.1415      15578.496     -0.21304653     0              180.60342      0              0              18.592588      19.07704       0.2            354.69154    
    198100   5.4970364e-05  0.034770141    0.027094716    0.0076754247   0              7793.0004      15586.202     -0.20121617     0              180.70419      0              0              18.592398      19.077095      0.2            354.68895    
    198200   5.4997542e-05  0.034805141    0.027121775    0.0076833662   0              7796.8537      15593.897     -0.189872       0              180.80669      0              0              18.592209      19.07715       0.2            354.68636    
    198300   5.4902074e-05  0.03484016     0.027148846    0.0076913134   0              7800.7054      15601.59      -0.17873201     0              180.90594      0              0              18.592019      19.077206      0.2            354.68377    
    198400   5.4754384e-05  0.034875196    0.027175934    0.0076992615   0              7804.5589      15609.285     -0.1670234      0              181.00051      0              0              18.591829      19.077261      0.2            354.68118    
    198500   5.4702694e-05  0.03491025     0.027203043    0.0077072068   0              7808.4162      15616.988     -0.15531521     0              181.09779      0              0              18.59164       19.077316      0.2            354.67859    
    198600   5.4547732e-05  0.034945321    0.027230167    0.0077151548   0              7812.2721      15624.687     -0.14295396     0              181.19375      0              0              18.59145       19.077372      0.2            354.676      
    198700   5.4563613e-05  0.034980411    0.027257312    0.0077230987   0              7816.128       15632.387     -0.13136497     0              181.28976      0              0              18.59126       19.077427      0.2            354.67341    
    198800   5.4460465e-05  0.035015517    0.027284476    0.0077310411   0              7819.9867      15640.093     -0.11967613     0              181.38845      0              0              18.591071      19.077482      0.2            354.67081    
    198900   5.4309653e-05  0.035050642    0.027311667    0.0077389755   0              7823.8481      15647.803     -0.10733154     0              181.48895      0              0              18.590881      19.077537      0.2            354.66821    
    199000   5.4413237e-05  0.035085784    0.027338874    0.0077469098   0              7827.7081      15655.511     -0.09444107     0              181.58708      0              0              18.590691      19.077592      0.2            354.66561    
    199100   5.4484032e-05  0.035120944    0.027366104    0.0077548397   0              7831.5668      15663.216     -0.082131374    0              181.67974      0              0              18.590502      19.077646      0.2            354.66301    
    199200   5.4594921e-05  0.035156121    0.027393348    0.0077627724   0              7835.4256      15670.921     -0.06963208     0              181.76695      0              0              18.590312      19.077701      0.2            354.66041    
    199300   5.4584763e-05  0.035191315    0.027420603    0.007770712    0              7839.2853      15678.627     -0.056784583    0              181.85881      0              0              18.590122      19.077755      0.2            354.6578     
    199400   5.4600657e-05  0.035226527    0.027447875    0.0077786519   0              7843.1482      15686.341     -0.044350692    0              181.95489      0              0              18.589932      19.07781       0.2            354.6552     
    199500   5.4618832e-05  0.035261757    0.027475165    0.0077865919   0              7847.0121      15694.056     -0.031449237    0              182.05526      0              0              18.589743      19.077864      0.2            354.65259    
    199600   5.4512352e-05  0.035297004    0.02750247     0.0077945339   0              7850.8773      15701.773     -0.018724352    0              182.15583      0              0              18.589553      19.077919      0.2            354.64998    
    199700   5.4417308e-05  0.035332268    0.027529784    0.0078024843   0              7854.7459      15709.498     -0.0057891255   0              182.255        0              0              18.589363      19.077973      0.2            354.64737    
    199800   5.4311358e-05  0.035367551    0.027557109    0.0078104421   0              7858.6197      15717.232      0.007650078    0              182.34978      0              0              18.589174      19.078027      0.2            354.64477    
    199900   5.43437e-05    0.035402851    0.027584447    0.0078184043   0              7862.4969      15724.973      0.021216555    0              182.44064      0              0              18.588984      19.078082      0.2            354.64216    
    200000   5.419743e-05   0.035438169    0.027611797    0.0078263716   0              7866.3761      15732.718      0.034118339    0              182.53366      0              0              18.588794      19.078137      0.2            354.63956    
    200100   5.4430501e-05  0.035473504    0.027639168    0.0078343364   0              7870.258       15740.469      0.04751332     0              182.62578      0              0              18.588605      19.078191      0.2            354.63696    
    200200   5.4425435e-05  0.035508857    0.027666542    0.0078423149   0              7874.1351      15748.209      0.060888735    0              182.71989      0              0              18.588415      19.078246      0.2            354.63436    
    200251   5.483846e-05   0.035526899    0.027680538    0.0078463609   0              7876.1705      15752.18       0.16140626     0              182.77017      0              0              18.588318      19.078272      0.2            354.633      
Loop time of 37.209 on 1 procs for 200000 steps with 200 atoms

Performance: 4644.036 ns/day, 0.005 hours/ns, 5375.041 timesteps/s
99.9% CPU use with 1 MPI tasks x 1 OpenMP threads

MPI task timing breakdown:
Section |  min time  |  avg time  |  max time  |%varavg| %total
---------------------------------------------------------------
Pair    | 0          | 0          | 0          |   0.0 |  0.00
Bond    | 29.429     | 29.429     | 29.429     |   0.0 | 79.09
Neigh   | 0          | 0          | 0          |   0.0 |  0.00
Comm    | 1.9586     | 1.9586     | 1.9586     |   0.0 |  5.26
Output  | 0.17348    | 0.17348    | 0.17348    |   0.0 |  0.47
Modify  | 5.4062     | 5.4062     | 5.4062     |   0.0 | 14.53
Other   |            | 0.2418     |            |       |  0.65

Nlocal:            200 ave         200 max         200 min
Histogram: 1 0 0 0 0 0 0 0 0 0
Nghost:            649 ave         649 max         649 min
Histogram: 1 0 0 0 0 0 0 0 0 0
Neighs:              0 ave           0 max           0 min
Histogram: 1 0 0 0 0 0 0 0 0 0

Total # of neighbors = 0
Ave neighs/atom = 0
Ave special neighs/atom = 32.87
Neighbor list builds = 0
Dangerous builds = 0
Total wall time: 0:00:37
