LAMMPS data file.

    200 atoms
    315 bonds
   2118 angles
      0 dihedrals
      0 impropers
      1 atom types
    315 bond types
   2118 angle types
      0 dihedral types
      0 improper types
  -9.483836   9.483836 xlo xhi
  -9.483836   9.483836 ylo yhi
  -0.100000   0.100000 zlo zhi
0.0 0.0 0.0 xy xz yz

Masses # ['atom_id', 'mass']

1 1000000.0

Atoms # ['atomID', 'moleculeID', 'atomType', 'charge', 'x', 'y', 'z']

     23      1      1   0.000000  -9.328733  -9.380610   0.000000
    169      1      1   0.000000  -7.757163  -8.605319   0.000000
     48      1      1   0.000000  -5.185774  -8.901196   0.000000
    172      1      1   0.000000  -2.404449  -9.319952   0.000000
    126      1      1   0.000000  -0.808078  -9.383601   0.000000
     11      1      1   0.000000   0.564018  -8.799367   0.000000
     24      1      1   0.000000   1.732194  -8.516278   0.000000
    108      1      1   0.000000   2.856414  -9.059438   0.000000
    138      1      1   0.000000   4.098638  -8.354142   0.000000
    152      1      1   0.000000   5.557119  -9.039644   0.000000
    161      1      1   0.000000   7.191149  -8.827910   0.000000
     96      1      1   0.000000   8.666776  -8.645276   0.000000
     35      1      1   0.000000  -9.090784  -8.291632   0.000000
     63      1      1   0.000000  -8.550984  -7.149200   0.000000
    127      1      1   0.000000  -6.224595  -8.127471   0.000000
     37      1      1   0.000000  -4.953114  -7.723369   0.000000
    198      1      1   0.000000  -3.610612  -8.057238   0.000000
    190      1      1   0.000000  -1.975125  -7.705664   0.000000
    117      1      1   0.000000  -0.424386  -7.932214   0.000000
    136      1      1   0.000000   0.985088  -7.537221   0.000000
    175      1      1   0.000000   2.730141  -7.452637   0.000000
     43      1      1   0.000000   5.134404  -7.594789   0.000000
    165      1      1   0.000000   6.441983  -7.327288   0.000000
     38      1      1   0.000000   7.813498  -7.645279   0.000000
    124      1      1   0.000000   9.038973  -7.256933   0.000000
     21      1      1   0.000000  -9.293367  -6.064903   0.000000
    128      1      1   0.000000  -7.153224  -7.032550   0.000000
     66      1      1   0.000000  -5.740719  -6.800952   0.000000
    109      1      1   0.000000  -4.360498  -6.535737   0.000000
     12      1      1   0.000000  -3.066560  -6.782434   0.000000
    157      1      1   0.000000  -1.963712  -6.024976   0.000000
      1      1      1   0.000000  -0.835481  -6.806729   0.000000
     20      1      1   0.000000   0.205914  -6.510414   0.000000
    183      1      1   0.000000   1.706689  -6.212015   0.000000
    195      1      1   0.000000   3.316728  -5.899192   0.000000
     31      1      1   0.000000   4.163017  -7.048996   0.000000
     36      1      1   0.000000   5.185597  -6.558559   0.000000
    153      1      1   0.000000   7.794270  -6.279386   0.000000
     82      1      1   0.000000  -8.951611  -4.806261   0.000000
    118      1      1   0.000000  -8.076484  -5.813636   0.000000
    150      1      1   0.000000  -6.599373  -5.604748   0.000000
    100      1      1   0.000000  -5.247352  -5.488786   0.000000
     58      1      1   0.000000  -4.105735  -4.807535   0.000000
     28      1      1   0.000000  -3.355673  -5.655026   0.000000
     56      1      1   0.000000  -0.520899  -5.646447   0.000000
    145      1      1   0.000000   0.657117  -5.093790   0.000000
    171      1      1   0.000000   4.783637  -5.191560   0.000000
    103      1      1   0.000000   6.239299  -5.728709   0.000000
    131      1      1   0.000000   7.499491  -4.742094   0.000000
     79      1      1   0.000000   8.804748  -5.278323   0.000000
     84      1      1   0.000000  -7.593682  -4.545826   0.000000
     18      1      1   0.000000  -6.373040  -4.351266   0.000000
     72      1      1   0.000000  -5.191408  -4.196458   0.000000
    163      1      1   0.000000  -2.725076  -4.366276   0.000000
     41      1      1   0.000000  -1.367542  -4.785389   0.000000
     88      1      1   0.000000  -0.331275  -4.188420   0.000000
    132      1      1   0.000000   2.105810  -4.678070   0.000000
    130      1      1   0.000000   3.502656  -4.270029   0.000000
    119      1      1   0.000000   4.788013  -3.616300   0.000000
    140      1      1   0.000000   6.147206  -4.214263   0.000000
    158      1      1   0.000000   8.769287  -3.761854   0.000000
    188      1      1   0.000000  -8.651814  -3.422585   0.000000
    178      1      1   0.000000  -6.969616  -3.115580   0.000000
    120      1      1   0.000000  -5.553801  -2.977399   0.000000
    180      1      1   0.000000  -3.988264  -3.180752   0.000000
    187      1      1   0.000000  -2.399801  -2.582024   0.000000
     61      1      1   0.000000  -1.469850  -3.638117   0.000000
    141      1      1   0.000000  -0.438123  -2.786423   0.000000
    177      1      1   0.000000   0.955576  -3.502876   0.000000
     76      1      1   0.000000   2.398167  -3.246842   0.000000
     19      1      1   0.000000   3.630675  -3.032406   0.000000
    116      1      1   0.000000   5.946180  -2.729826   0.000000
     93      1      1   0.000000   7.327661  -3.312736   0.000000
      8      1      1   0.000000   8.311095  -2.435565   0.000000
    144      1      1   0.000000  -7.958631  -2.018087   0.000000
    186      1      1   0.000000  -6.302690  -1.624012   0.000000
     49      1      1   0.000000  -4.875940  -1.973088   0.000000
     73      1      1   0.000000  -3.700383  -1.757672   0.000000
     44      1      1   0.000000  -1.242800  -1.634838   0.000000
    113      1      1   0.000000   1.593568  -2.087204   0.000000
    189      1      1   0.000000   3.128222  -1.832687   0.000000
     86      1      1   0.000000   4.575076  -2.187061   0.000000
     92      1      1   0.000000   5.616516  -1.360173   0.000000
    184      1      1   0.000000   7.106868  -1.769465   0.000000
     74      1      1   0.000000  -9.461068  -2.276322   0.000000
    196      1      1   0.000000  -8.886421  -0.838786   0.000000
     62      1      1   0.000000  -7.437330  -0.674920   0.000000
     91      1      1   0.000000  -5.102187  -0.873079   0.000000
    133      1      1   0.000000  -3.839114  -0.321537   0.000000
    104      1      1   0.000000  -2.462650  -1.029583   0.000000
    168      1      1   0.000000  -1.023494  -0.217015   0.000000
    156      1      1   0.000000   0.188320  -1.401744   0.000000
    193      1      1   0.000000   1.667142  -0.429871   0.000000
     99      1      1   0.000000   3.004381  -0.386024   0.000000
    121      1      1   0.000000   4.341537  -0.780814   0.000000
     77      1      1   0.000000   6.587071  -0.425131   0.000000
    101      1      1   0.000000   8.528100  -1.157577   0.000000
      2      1      1   0.000000  -8.695641   0.512565   0.000000
     40      1      1   0.000000  -7.627541   0.463147   0.000000
    105      1      1   0.000000  -6.279521   0.050657   0.000000
     26      1      1   0.000000  -5.025827   0.317256   0.000000
    197      1      1   0.000000  -2.551355   0.566045   0.000000
     97      1      1   0.000000   0.381663   0.143851   0.000000
     67      1      1   0.000000   2.523131   0.891796   0.000000
    139      1      1   0.000000   3.954841   0.593686   0.000000
     85      1      1   0.000000   5.394440   0.132606   0.000000
    173      1      1   0.000000   6.652413   1.035010   0.000000
      3      1      1   0.000000   7.710734  -0.031115   0.000000
    147      1      1   0.000000   8.932142   0.289035   0.000000
     32      1      1   0.000000  -9.331886   1.404282   0.000000
     13      1      1   0.000000  -8.146798   1.506286   0.000000
     75      1      1   0.000000  -6.901474   1.360953   0.000000
     27      1      1   0.000000  -6.182074   2.231628   0.000000
     22      1      1   0.000000  -5.516210   1.280224   0.000000
     29      1      1   0.000000  -5.070039   2.293526   0.000000
    154      1      1   0.000000  -4.038784   1.348528   0.000000
    110      1      1   0.000000  -2.515998   2.120350   0.000000
     53      1      1   0.000000  -1.278510   1.314576   0.000000
     55      1      1   0.000000  -0.022590   1.399371   0.000000
     89      1      1   0.000000   1.306035   1.187770   0.000000
     80      1      1   0.000000   2.142263   2.199945   0.000000
     95      1      1   0.000000   3.536986   1.830545   0.000000
    182      1      1   0.000000   5.064272   1.633804   0.000000
      5      1      1   0.000000   8.049805   1.174275   0.000000
     25      1      1   0.000000   7.531301   2.125437   0.000000
     46      1      1   0.000000  -8.855414   2.395504   0.000000
     70      1      1   0.000000  -7.439531   2.579415   0.000000
     30      1      1   0.000000  -6.323135   3.271772   0.000000
      6      1      1   0.000000  -5.188413   3.372319   0.000000
    185      1      1   0.000000  -3.831306   3.035160   0.000000
    167      1      1   0.000000  -2.249549   3.642059   0.000000
    200      1      1   0.000000  -0.734468   2.745012   0.000000
     78      1      1   0.000000   0.811460   2.528980   0.000000
    176      1      1   0.000000   3.295709   3.214502   0.000000
    191      1      1   0.000000   4.961781   3.281030   0.000000
    149      1      1   0.000000   6.305333   2.595396   0.000000
    142      1      1   0.000000   8.767839   2.307199   0.000000
     47      1      1   0.000000  -8.310952   3.462095   0.000000
     87      1      1   0.000000  -7.225456   4.062216   0.000000
    111      1      1   0.000000  -5.944406   4.517079   0.000000
     50      1      1   0.000000  -4.583066   4.368283   0.000000
    134      1      1   0.000000  -3.428163   4.698180   0.000000
    114      1      1   0.000000  -0.858053   4.468897   0.000000
     71      1      1   0.000000   0.375081   3.840606   0.000000
    143      1      1   0.000000   1.758468   3.629095   0.000000
     81      1      1   0.000000   2.831301   4.516015   0.000000
    162      1      1   0.000000   4.248456   4.676411   0.000000
      4      1      1   0.000000   6.267767   3.884313   0.000000
    160      1      1   0.000000   7.613182   3.538579   0.000000
    151      1      1   0.000000   9.290974   3.832494   0.000000
    135      1      1   0.000000  -8.445336   4.782858   0.000000
     42      1      1   0.000000  -7.212906   5.332932   0.000000
     83      1      1   0.000000  -6.205341   5.910401   0.000000
     10      1      1   0.000000  -5.024260   5.381123   0.000000
     94      1      1   0.000000  -2.083321   5.097869   0.000000
      7      1      1   0.000000   0.218195   5.219942   0.000000
    194      1      1   0.000000   1.654044   5.296097   0.000000
     68      1      1   0.000000   5.669776   4.963185   0.000000
     60      1      1   0.000000   6.925436   4.926574   0.000000
     16      1      1   0.000000   6.305960   6.001546   0.000000
      9      1      1   0.000000   8.200243   4.761212   0.000000
    129      1      1   0.000000   9.195721   5.499913   0.000000
     34      1      1   0.000000  -8.572359   6.114536   0.000000
    112      1      1   0.000000  -7.316426   6.664633   0.000000
     52      1      1   0.000000  -5.164417   6.535399   0.000000
    107      1      1   0.000000  -3.934561   6.121670   0.000000
     57      1      1   0.000000  -2.574092   6.200143   0.000000
    192      1      1   0.000000  -0.995921   6.081676   0.000000
    159      1      1   0.000000   0.682176   6.549468   0.000000
    155      1      1   0.000000   3.261392   5.963844   0.000000
    122      1      1   0.000000   4.882254   6.169473   0.000000
     69      1      1   0.000000   6.727290   7.101941   0.000000
    166      1      1   0.000000   7.796579   6.148431   0.000000
    148      1      1   0.000000   9.154515   6.988479   0.000000
    106      1      1   0.000000  -8.442097   7.556405   0.000000
     65      1      1   0.000000  -7.244271   8.110626   0.000000
    123      1      1   0.000000  -5.972122   7.675968   0.000000
    125      1      1   0.000000  -4.464722   7.763647   0.000000
     14      1      1   0.000000  -3.227690   7.257411   0.000000
    137      1      1   0.000000  -1.935707   7.349489   0.000000
    199      1      1   0.000000  -0.454042   7.761539   0.000000
     90      1      1   0.000000   1.078398   7.993228   0.000000
    181      1      1   0.000000   2.308156   7.228628   0.000000
    179      1      1   0.000000   4.039768   7.568944   0.000000
     51      1      1   0.000000   5.491492   7.396094   0.000000
     59      1      1   0.000000   7.948225   7.641091   0.000000
     98      1      1   0.000000   9.403771   8.368185   0.000000
     54      1      1   0.000000  -8.268174   8.982530   0.000000
    170      1      1   0.000000  -6.418017   9.325312   0.000000
     33      1      1   0.000000  -5.225685   8.795697   0.000000
    164      1      1   0.000000  -3.992711   9.285723   0.000000
     39      1      1   0.000000  -2.906679   8.330105   0.000000
     17      1      1   0.000000  -1.606142   8.558614   0.000000
     45      1      1   0.000000   0.293367   8.958085   0.000000
    146      1      1   0.000000   1.524234   9.261423   0.000000
     64      1      1   0.000000   2.868700   8.545379   0.000000
    115      1      1   0.000000   4.122370   9.138214   0.000000
     15      1      1   0.000000   5.231734   8.506435   0.000000
    174      1      1   0.000000   6.646785   8.560004   0.000000
    102      1      1   0.000000   8.257301   8.966094   0.000000

Bond Coeffs # ['bondID', 'bondCoeff', 'd']

      1   0.086050   1.674830
      2   0.179659   1.476629
      3   0.133396   1.282260
      4   0.059675   1.140321
      5   0.107451   1.544861
      6   0.164993   1.497142
      7   0.034406   1.670403
      8   0.172768   1.598520
      9   0.273765   1.462416
     10   0.071472   1.212921
     11   0.144208   1.251023
     12   0.087892   1.361752
     13   0.106323   1.565299
     14   0.103994   1.083308
     15   0.035990   1.425507
     16   0.250455   1.402619
     17   0.140117   1.273751
     18   0.129729   1.370016
     19   0.108688   1.555457
     20   0.078770   1.416065
     21   0.036859   1.537893
     22   0.085730   1.637776
     23   0.128997   1.161268
     24   0.434064   1.337957
     25   0.023331   1.471409
     26   0.094407   1.270324
     27   0.580751   1.288971
     28   0.031944   1.658966
     29   0.176468   1.417351
     30   0.578934   1.195131
     31   0.263998   1.652705
     32   0.041835   1.201096
     33   0.079010   1.245833
     34   0.115210   1.266902
     35   0.162958   1.451907
     36   0.063959   1.440284
     37   0.196030   1.198213
     38   0.005731   1.402979
     39   0.117584   1.468833
     40   0.135265   1.317245
     41   0.302379   1.398362
     42   0.037707   1.437967
     43   0.237859   1.499424
     44   0.585630   1.161317
     45   0.313405   1.240692
     46   0.238293   1.592167
     47   0.103908   1.451648
     48   0.044765   1.082730
     49   0.108470   1.424872
     50   0.250252   1.337851
     51   0.452417   1.376173
     52   0.158516   1.484030
     53   0.044300   1.440782
     54   0.138643   1.360573
     55   0.208904   1.447791
     56   0.037335   1.379998
     57   0.262712   1.411112
     58   0.524587   1.243874
     59   0.270417   1.220756
     60   0.061635   1.510881
     61   0.198520   1.383968
     62   0.060140   1.123034
     63   0.103787   1.495263
     64   0.148873   1.267694
     65   0.140056   1.381920
     66   0.166306   1.371509
     67   0.133441   1.252567
     68   0.271003   1.404315
     69   0.375650   1.548169
     70   0.131801   1.415512
     71   0.038299   1.114672
     72   0.129951   1.297581
     73   0.085760   1.465270
     74   0.159719   1.406063
     75   0.367609   1.119696
     76   0.106173   1.331975
     77   0.182854   1.404832
     78   0.257216   1.113756
     79   0.360593   1.449458
     80   0.294745   1.393894
     81   0.581257   1.293015
     82   0.423498   1.527187
     83   0.681858   1.172534
     84   0.482064   1.258779
     85   0.335455   1.628992
     86   0.369143   1.618667
     87   0.411645   1.542133
     88   0.280749   1.633880
     89   0.576991   1.301624
     90   0.261542   1.661357
     91   0.507633   1.366029
     92   0.573070   1.295260
     93   0.425859   1.510360
     94   0.638213   1.249826
     95   0.787545   1.107181
     96   0.428568   1.377276
     97   0.476129   1.362730
     98   0.392055   1.293538
     99   0.291821   1.461602
    100   0.426248   1.475506
    101   0.333563   1.585018
    102   0.325319   1.431365
    103   0.274851   1.650412
    104   0.406616   1.549856
    105   0.583488   1.153854
    106   0.449987   1.415082
    107   0.545766   1.336388
    108   0.579338   1.190742
    109   0.513617   1.314875
    110   0.279041   1.557642
    111   0.182066   1.488644
    112   0.614510   1.233515
    113   0.364874   1.618662
    114   0.845461   1.085268
    115   0.469433   1.334152
    116   0.664843   1.197520
    117   0.454492   1.359408
    118   0.625197   1.256194
    119   0.695015   1.139167
    120   0.545367   1.350350
    121   0.307568   1.710783
    122   0.742735   1.151825
    123   0.361490   1.425824
    124   0.558857   1.289464
    125   0.479535   1.381886
    126   0.590985   1.165232
    127   0.492161   1.394219
    128   0.345798   1.517243
    129   0.392703   1.531460
    130   0.425606   1.497839
    131   0.499445   1.350771
    132   0.566744   1.318996
    133   0.764539   1.104761
    134   0.426133   1.509964
    135   0.535446   1.364751
    136   0.599061   1.270778
    137   0.549145   1.345370
    138   0.371360   1.633853
    139   0.473944   1.232411
    140   0.369418   1.516883
    141   0.552849   1.344355
    142   0.167787   1.479787
    143   0.435401   1.437868
    144   0.275649   1.509948
    145   0.258031   1.694190
    146   0.461601   1.382678
    147   0.806779   1.049666
    148   0.369950   1.633494
    149   0.315917   1.672849
    150   0.370111   1.640148
    151   0.473530   1.441327
    152   0.481433   1.337722
    153   0.308130   1.582611
    154   0.735382   1.069242
    155   0.303364   1.591481
    156   0.424074   1.508385
    157   0.403085   1.574649
    158   0.593443   1.252434
    159   0.369321   1.455224
    160   0.415327   1.497987
    161   0.535921   1.129025
    162   0.541106   1.318670
    163   0.243982   1.697554
    164   0.364438   1.378242
    165   0.368206   1.488846
    166   0.386088   1.560949
    167   0.377850   1.622015
    168   0.478540   1.369448
    169   0.566564   1.326782
    170   0.304604   1.491641
    171   0.483925   1.420758
    172   0.546330   1.296289
    173   0.368059   1.628670
    174   0.321433   1.465136
    175   0.449138   1.329789
    176   0.470032   1.356628
    177   0.550775   1.314737
    178   0.416717   1.335719
    179   0.500962   1.356271
    180   0.259554   1.448073
    181   0.344798   1.558986
    182   0.439580   1.507161
    183   0.288593   1.740532
    184   0.403751   1.489621
    185   0.488367   1.260728
    186   0.445713   1.407897
    187   0.595315   1.295299
    188   0.269279   1.484912
    189   0.520297   1.362910
    190   0.297122   1.555616
    191   0.457763   1.449962
    192   0.320288   1.469067
    193   0.413888   1.553713
    194   0.464989   1.450756
    195   0.318092   1.537077
    196   0.318361   1.760729
    197   0.274041   1.451954
    198   0.302622   1.551605
    199   0.532981   1.240362
    200   0.310783   1.567200
    201   0.612920   1.248556
    202   0.492984   1.403144
    203   0.581162   1.202172
    204   0.524194   1.372161
    205   0.450691   1.305535
    206   0.412858   1.554706
    207   0.380372   1.416838
    208   0.541184   1.345719
    209   0.384969   1.548138
    210   0.570166   1.241355
    211   0.254608   1.764737
    212   0.348383   1.647691
    213   0.616414   1.271784
    214   0.406848   1.444756
    215   0.441032   1.341245
    216   0.281858   1.539906
    217   0.521694   1.347316
    218   0.369106   1.508003
    219   0.430628   1.442819
    220   0.439988   1.375498
    221   0.584103   1.099794
    222   0.244250   1.545532
    223   0.539223   1.285236
    224   0.453411   1.347880
    225   0.481090   1.253775
    226   0.390934   1.400438
    227   0.338256   1.680692
    228   0.557862   1.231552
    229   0.677082   1.080640
    230   0.436750   1.416766
    231   0.435256   1.501247
    232   0.543259   1.301212
    233   0.435452   1.458489
    234   0.595461   1.214144
    235   0.401423   1.415781
    236   0.461436   1.336609
    237   0.405806   1.372084
    238   0.409731   1.253234
    239   0.696801   1.114218
    240   0.498473   1.366377
    241   0.325343   1.667400
    242   0.307958   1.696259
    243   0.395213   1.519791
    244   0.465619   1.281726
    245   0.518543   1.285487
    246   0.486672   1.422543
    247   0.471611   1.403205
    248   0.374388   1.602159
    249   0.505016   1.262669
    250   0.547076   1.163888
    251   0.455194   1.300046
    252   0.601498   1.236050
    253   0.289441   1.383394
    254   0.531336   1.320776
    255   0.373028   1.578689
    256   0.343100   1.524738
    257   0.258558   1.703341
    258   0.542981   1.276649
    259   0.427900   1.458066
    260   0.498567   1.312926
    261   0.286935   1.681959
    262   0.317772   1.566243
    263   0.476593   1.371122
    264   0.375279   1.586022
    265   0.513240   1.296281
    266   0.502474   1.242554
    267   0.375442   1.427861
    268   0.278698   1.639738
    269   0.497899   1.294253
    270   0.421653   1.329433
    271   0.530230   1.192782
    272   0.232488   1.716841
    273   0.425677   1.450414
    274   0.478686   1.306733
    275   0.394747   1.500344
    276   0.442886   1.449979
    277   0.374074   1.500516
    278   0.506486   1.370876
    279   0.380986   1.460284
    280   0.465983   1.312394
    281   0.292653   1.611755
    282   0.662638   1.178299
    283   0.375246   1.605336
    284   0.464974   1.410085
    285   0.424955   1.299411
    286   0.413803   1.479004
    287   0.557308   1.264590
    288   0.527739   1.341302
    289   0.310342   1.670918
    290   0.512095   1.382313
    291   0.427282   1.402041
    292   0.524303   1.356985
    293   0.454905   1.412016
    294   0.398736   1.334661
    295   0.421791   1.437367
    296   0.611347   1.244227
    297   0.418995   1.530402
    298   0.471408   1.399463
    299   0.386010   1.319829
    300   0.662039   1.162754
    301   0.337329   1.358406
    302   0.380991   1.426203
    303   0.917213   1.037493
    304   0.446384   1.391763
    305   0.184281   1.461978
    306   0.561965   1.330530
    307   0.395910   1.431099
    308   0.591064   1.208006
    309   0.396859   1.486291
    310   0.445297   1.436691
    311   0.219989   1.611546
    312   0.467652   1.434757
    313   0.263555   1.608290
    314   0.392735   1.563514
    315   0.520531   1.386044

Bonds # ['ID', 'type', 'atom1', 'atom2']

         1         1       186       105
         2         2       197        53
         3         3       125        33
         4         4        51        15
         5         5       110       167
         6         6       159        90
         7         7       172       190
         8         8       173       149
         9         9        67       139
        10        10        37        66
        11        11        76        19
        12        12        44       104
        13        13       153       131
        14        14         5        25
        15        15        86       121
        16        16        63       128
        17        17       150        18
        18        18       169        35
        19        19       151       135
        20        20        15       174
        21        21       137       199
        22        22       152       115
        23        23        27        22
        24        24       193        99
        25        25       169        54
        26        26        69        51
        27        27       136        20
        28        28       113       193
        29        29        63       118
        30        30        49        73
        31        31       104       168
        32        32        50       134
        33        33        58        72
        34        34       126        45
        35        35       180        73
        36        36       157        28
        37        37       117         1
        38        38       134        94
        39        39       186        49
        40        40       109        12
        41        41         6       185
        42        42        48       170
        43        43       116        93
        44        44        42        83
        45        45        60        16
        46        46       176       143
        47        47       131       140
        48        48         1        20
        49        49        36       171
        50        50        61       141
        51        51         8       184
        52        52       148       106
        53        53       144        62
        54        54        59       102
        55        55       112        65
        56        56       137        39
        57        57       131        79
        58        58        90        45
        59        59        23        54
        60        60       134       107
        61        61       114        71
        62        62        49        91
        63        63       187        44
        64        64        45       146
        65        65        63       124
        66        66       148        59
        67        67        67        89
        68        68       173         5
        69        69        85       173
        70        70        25       160
        71        71        23        35
        72        72        52       107
        73        73       167        94
        74        74        88       141
        75        75        14        39
        76        76        75        70
        77        77        95       176
        78        78        27        29
        79        79        58       163
        80        80       121        85
        81        81        98       102
        82        82       127       170
        83        83        21        79
        84        84        53        55
        85        85       172       164
        86        86       145       177
        87        87       129       166
        88        88       178       186
        89        89        30       111
        90        90       159       199
        91        91        38       153
        92        92        14       137
        93        93        81       155
        94        94        25       142
        95        95        22        29
        96        96       114        94
        97        97       107        57
        98        98       100        72
        99        99        77       173
       100       100       138       115
       101       101       183       132
       102       102       128        66
       103       103       182       191
       104       104       199        90
       105       105        62        40
       106       106        47       151
       107       107       161        38
       108       108        77         3
       109       109        11       117
       110       110       156        97
       111       111       175        31
       112       112         4        68
       113       113       114       192
       114       114        29         6
       115       115       127        37
       116       116        46        47
       117       117        87       111
       118       118        68        60
       119       119        30         6
       120       120       172        17
       121       121       165       153
       122       122        41        61
       123       123        48       164
       124       124       149         4
       125       125       176        81
       126       126        40        13
       127       127        99       121
       128       128       103       140
       129       129       128       150
       130       130        16       166
       131       131       124        21
       132       132        97        55
       133       133        50        10
       134       134       158        93
       135       135       196         2
       136       136        87        42
       137       137        55        89
       138       138       155       122
       139       139         4        60
       140       140        79       158
       141       141        65       123
       142       142        80       143
       143       143         7       194
       144       144       123       125
       145       145       185       167
       146       146        82        84
       147       147        27        30
       148       148       122       179
       149       149       198       190
       150       150       183       195
       151       151       184        77
       152       152       135        34
       153       153        57       192
       154       154         2        40
       155       155        76       189
       156       156       191       149
       157       157       193        67
       158       158        32       142
       159       159       132       130
       160       160       140       116
       161       161        20        56
       162       162       147        32
       163       163       180       187
       164       164        91       133
       165       165         7       192
       166       166       200        78